12
	Energy:      -9.4175074
C          2.40090       -0.03228       -0.00001
H          3.17623       -0.80237       -0.00011
H          2.49866        0.58790       -0.89535
H          2.49867        0.58767        0.89550
O          1.10536       -0.67416       -0.00008
C         -0.00008        0.09733       -0.00000
O         -0.00013        1.31503        0.00013
O         -1.10547       -0.67424       -0.00007
C         -2.40106       -0.03246       -0.00001
H         -3.17633       -0.80262       -0.00007
H         -2.49886        0.58752        0.89547
H         -2.49888        0.58767       -0.89539
