10
reference_type=interaction_energy reference_unit=kcalmol reference_value=-7.029 charge=0 charge_a=0 charge_b=0 selection_a=1-7 selection_b=8-10
  N   -0.533463968  -0.279593512   0.106995757
  H   -0.629151376  -1.248424552   0.382848668
  H   -1.122603635  -0.166159444  -0.707764101
  C   -1.016909428   0.588486102   1.187373456
  H   -0.912759674   1.625551742   0.879521158
  H   -2.054737265   0.415082130   1.478503595
  H   -0.385023376   0.448800896   2.060614186
  O    2.221273774   0.966882422   0.207282486
  H    1.403756366   0.470609934   0.034129584
  H    2.803175223   0.708384552  -0.508463607
