 Entering Gaussian System, Link 0=g16
 Input=/home/s/spoel/wd/Liquids/MOLECULES/RUN/compounds/acetate/acetate-3-oep.com
 Output=/home/s/spoel/wd/Liquids/MOLECULES/RUN/compounds/acetate/acetate-3-oep.log
 Initial command:
 /hpc2n/eb/software/Core/gaussian/16.A.03-AVX2/g16/l1.exe "/scratch/spoel/home/s/spoel/wd/Liquids/MOLECULES/RUN/compounds/acetate/acetate-3-oep.com/Gau-900927.inp" -scrdir="/scratch/spoel/home/s/spoel/wd/Liquids/MOLECULES/RUN/compounds/acetate/acetate-3-oep.com/"
 Entering Link 1 = /hpc2n/eb/software/Core/gaussian/16.A.03-AVX2/g16/l1.exe PID=    900930.
  
 Copyright (c) 1988,1990,1992,1993,1995,1998,2003,2009,2016,
            Gaussian, Inc.  All Rights Reserved.
  
 This is part of the Gaussian(R) 16 program.  It is based on
 the Gaussian(R) 09 system (copyright 2009, Gaussian, Inc.),
 the Gaussian(R) 03 system (copyright 2003, Gaussian, Inc.),
 the Gaussian(R) 98 system (copyright 1998, Gaussian, Inc.),
 the Gaussian(R) 94 system (copyright 1995, Gaussian, Inc.),
 the Gaussian 92(TM) system (copyright 1992, Gaussian, Inc.),
 the Gaussian 90(TM) system (copyright 1990, Gaussian, Inc.),
 the Gaussian 88(TM) system (copyright 1988, Gaussian, Inc.),
 the Gaussian 86(TM) system (copyright 1986, Carnegie Mellon
 University), and the Gaussian 82(TM) system (copyright 1983,
 Carnegie Mellon University). Gaussian is a federally registered
 trademark of Gaussian, Inc.
  
 This software contains proprietary and confidential information,
 including trade secrets, belonging to Gaussian, Inc.
  
 This software is provided under written license and may be
 used, copied, transmitted, or stored only in accord with that
 written license.
  
 The following legend is applicable only to US Government
 contracts under FAR:
  
                    RESTRICTED RIGHTS LEGEND
  
 Use, reproduction and disclosure by the US Government is
 subject to restrictions as set forth in subparagraphs (a)
 and (c) of the Commercial Computer Software - Restricted
 Rights clause in FAR 52.227-19.
  
 Gaussian, Inc.
 340 Quinnipiac St., Bldg. 40, Wallingford CT 06492
  
  
 ---------------------------------------------------------------
 Warning -- This program may not be used in any manner that
 competes with the business of Gaussian, Inc. or will provide
 assistance to any competitor of Gaussian, Inc.  The licensee
 of this program is prohibited from giving any competitor of
 Gaussian, Inc. access to this program.  By using this program,
 the user acknowledges that Gaussian, Inc. is engaged in the
 business of creating and licensing software in the field of
 computational chemistry and represents and warrants to the
 licensee that it is not a competitor of Gaussian, Inc. and that
 it will not use this program in any manner prohibited above.
 ---------------------------------------------------------------
  

 Cite this work as:
 Gaussian 16, Revision A.03,
 M. J. Frisch, G. W. Trucks, H. B. Schlegel, G. E. Scuseria, 
 M. A. Robb, J. R. Cheeseman, G. Scalmani, V. Barone, 
 G. A. Petersson, H. Nakatsuji, X. Li, M. Caricato, A. V. Marenich, 
 J. Bloino, B. G. Janesko, R. Gomperts, B. Mennucci, H. P. Hratchian, 
 J. V. Ortiz, A. F. Izmaylov, J. L. Sonnenberg, D. Williams-Young, 
 F. Ding, F. Lipparini, F. Egidi, J. Goings, B. Peng, A. Petrone, 
 T. Henderson, D. Ranasinghe, V. G. Zakrzewski, J. Gao, N. Rega, 
 G. Zheng, W. Liang, M. Hada, M. Ehara, K. Toyota, R. Fukuda, 
 J. Hasegawa, M. Ishida, T. Nakajima, Y. Honda, O. Kitao, H. Nakai, 
 T. Vreven, K. Throssell, J. A. Montgomery, Jr., J. E. Peralta, 
 F. Ogliaro, M. J. Bearpark, J. J. Heyd, E. N. Brothers, K. N. Kudin, 
 V. N. Staroverov, T. A. Keith, R. Kobayashi, J. Normand, 
 K. Raghavachari, A. P. Rendell, J. C. Burant, S. S. Iyengar, 
 J. Tomasi, M. Cossi, J. M. Millam, M. Klene, C. Adamo, R. Cammi, 
 J. W. Ochterski, R. L. Martin, K. Morokuma, O. Farkas, 
 J. B. Foresman, and D. J. Fox, Gaussian, Inc., Wallingford CT, 2016.
 
 ******************************************
 Gaussian 16:  ES64L-G16RevA.03 25-Dec-2016
                 2-Jan-2018 
 ******************************************
 %mem=24500MB
 %chk=/home/s/spoel/wd/Liquids/MOLECULES/RUN/compounds/acetate/acetate-3-oep.chk
 ----------------------------------------------------------------------
 #P B3LYP/Gen Int(Grid=SuperFineGrid) Opt=(Redundant, calcall, tight) s
 ymm=(loose,follow) Pop=(MK,Hirshfeld,ReadRadii) iop(6/33=2) iop(6/42=6
 ) Polar Freq maxdisk=128GB
 ----------------------------------------------------------------------
 1/7=10,10=4,18=20,19=15,26=5,38=1/1,3;
 2/9=110,12=2,17=4,18=3,40=1/2;
 3/5=7,11=2,25=1,30=1,71=2,74=-5,75=-7,140=1/1,2,3;
 4//1;
 5/5=2,38=5,98=1/2;
 8/6=4,10=90,11=11/1;
 11/6=1,8=1,9=11,15=111,16=1/1,2,10;
 10/6=1/2;
 6/7=2,8=2,9=2,10=2,15=8,18=1,20=101,28=1,33=2,42=6,79=1/1,2;
 7/10=1,25=1/1,2,3,16;
 1/7=10,10=4,18=20,19=15,26=5/3(3);
 2/9=110,15=5/2;
 7/8=1,9=1,25=1,44=-1/16;
 99//99;
 2/9=110,15=5/2;
 3/5=7,6=1,11=2,25=1,30=1,71=2,74=-5,75=-7,82=7,140=1/1,2,3;
 4/5=5,16=3,69=1/1;
 5/5=2,38=5,98=1/2;
 8/6=4,10=90,11=11/1;
 11/6=1,8=1,9=11,15=111,16=1/1,2,10;
 10/6=1/2;
 7/10=1,25=1/1,2,3,16;
 1/7=10,10=4,18=20,19=15,26=5/3(-8);
 2/9=110,15=5/2;
 6/7=2,8=2,9=2,10=2,15=8,18=1,19=2,20=101,28=1,33=2,42=6,79=1/1,2;
 7/8=1,9=1,25=1,44=-1/16;
 99//99;
 Leave Link    1 at Tue Jan  2 10:05:40 2018, MaxMem=  3211264000 cpu:               0.1 elap:               0.1
 (Enter /hpc2n/eb/software/Core/gaussian/16.A.03-AVX2/g16/l101.exe)
 -------
 acetate
 -------
 Symbolic Z-matrix:
 Charge = -1 Multiplicity = 1
 C                    -1.19217   0.63728   0.03625 
 C                     0.18566  -0.09473  -0.01063 
 O                     0.22086  -1.201     0.59408 
 O                     1.10856   0.49345  -0.63665 
 H                    -1.97654  -0.02854  -0.33286 
 H                    -1.43811   0.87901   1.07402 
 H                    -1.18165   1.55468  -0.55427 
 
 ITRead=  0  0  0  0  0  0  0
 MicOpt= -1 -1 -1 -1 -1 -1 -1
 NAtoms=      7 NQM=        7 NQMF=       0 NMMI=      0 NMMIF=      0
                NMic=       0 NMicF=      0.
                    Isotopes and Nuclear Properties:
 (Nuclear quadrupole moments (NQMom) in fm**2, nuclear magnetic moments (NMagM)
  in nuclear magnetons)

  Atom         1           2           3           4           5           6           7
 IAtWgt=          12          12          16          16           1           1           1
 AtmWgt=  12.0000000  12.0000000  15.9949146  15.9949146   1.0078250   1.0078250   1.0078250
 NucSpn=           0           0           0           0           1           1           1
 AtZEff=  -0.0000000  -0.0000000  -0.0000000  -0.0000000  -0.0000000  -0.0000000  -0.0000000
 NQMom=    0.0000000   0.0000000   0.0000000   0.0000000   0.0000000   0.0000000   0.0000000
 NMagM=    0.0000000   0.0000000   0.0000000   0.0000000   2.7928460   2.7928460   2.7928460
 AtZNuc=   6.0000000   6.0000000   8.0000000   8.0000000   1.0000000   1.0000000   1.0000000
 Leave Link  101 at Tue Jan  2 10:05:40 2018, MaxMem=  3211264000 cpu:               0.4 elap:               0.4
 (Enter /hpc2n/eb/software/Core/gaussian/16.A.03-AVX2/g16/l103.exe)

 GradGradGradGradGradGradGradGradGradGradGradGradGradGradGradGradGradGrad
 Berny optimization.
 Initialization pass.
                           ----------------------------
                           !    Initial Parameters    !
                           ! (Angstroms and Degrees)  !
 --------------------------                            --------------------------
 ! Name  Definition              Value          Derivative Info.                !
 --------------------------------------------------------------------------------
 ! R1    R(1,2)                  1.5609         calculate D2E/DX2 analytically  !
 ! R2    R(1,5)                  1.0931         calculate D2E/DX2 analytically  !
 ! R3    R(1,6)                  1.0936         calculate D2E/DX2 analytically  !
 ! R4    R(1,7)                  1.0911         calculate D2E/DX2 analytically  !
 ! R5    R(2,3)                  1.2613         calculate D2E/DX2 analytically  !
 ! R6    R(2,4)                  1.2608         calculate D2E/DX2 analytically  !
 ! A1    A(2,1,5)              109.7322         calculate D2E/DX2 analytically  !
 ! A2    A(2,1,6)              109.3105         calculate D2E/DX2 analytically  !
 ! A3    A(2,1,7)              111.6876         calculate D2E/DX2 analytically  !
 ! A4    A(5,1,6)              107.0807         calculate D2E/DX2 analytically  !
 ! A5    A(5,1,7)              109.6532         calculate D2E/DX2 analytically  !
 ! A6    A(6,1,7)              109.2632         calculate D2E/DX2 analytically  !
 ! A7    A(1,2,3)              114.9334         calculate D2E/DX2 analytically  !
 ! A8    A(1,2,4)              116.2493         calculate D2E/DX2 analytically  !
 ! A9    A(3,2,4)              128.8167         calculate D2E/DX2 analytically  !
 ! D1    D(5,1,2,3)            -54.5805         calculate D2E/DX2 analytically  !
 ! D2    D(5,1,2,4)            125.6846         calculate D2E/DX2 analytically  !
 ! D3    D(6,1,2,3)             62.5698         calculate D2E/DX2 analytically  !
 ! D4    D(6,1,2,4)           -117.165          calculate D2E/DX2 analytically  !
 ! D5    D(7,1,2,3)           -176.3953         calculate D2E/DX2 analytically  !
 ! D6    D(7,1,2,4)              3.8698         calculate D2E/DX2 analytically  !
 --------------------------------------------------------------------------------
 Trust Radius=3.00D-01 FncErr=1.00D-07 GrdErr=1.00D-07 EigMax=2.50D+02 EigMin=1.00D-04
 Number of steps in this run=     31 maximum allowed number of steps=    100.
 GradGradGradGradGradGradGradGradGradGradGradGradGradGradGradGradGradGrad

 Leave Link  103 at Tue Jan  2 10:05:40 2018, MaxMem=  3211264000 cpu:               0.0 elap:               0.0
 (Enter /hpc2n/eb/software/Core/gaussian/16.A.03-AVX2/g16/l202.exe)
                          Input orientation:                          
 ---------------------------------------------------------------------
 Center     Atomic      Atomic             Coordinates (Angstroms)
 Number     Number       Type             X           Y           Z
 ---------------------------------------------------------------------
      1          6           0       -1.192167    0.637275    0.036251
      2          6           0        0.185664   -0.094730   -0.010634
      3          8           0        0.220857   -1.201002    0.594077
      4          8           0        1.108558    0.493450   -0.636651
      5          1           0       -1.976544   -0.028544   -0.332860
      6          1           0       -1.438106    0.879010    1.074019
      7          1           0       -1.181647    1.554684   -0.554266
 ---------------------------------------------------------------------
                    Distance matrix (angstroms):
                    1          2          3          4          5
     1  C    0.000000
     2  C    1.560912   0.000000
     3  O    2.384758   1.261250   0.000000
     4  O    2.401420   1.260788   2.274615   0.000000
     5  H    1.093071   2.187088   2.657525   3.143664   0.000000
     6  H    1.093565   2.182034   2.703507   3.092013   1.758658
     7  H    1.091082   2.210349   3.298411   2.525479   1.785355
                    6          7
     6  H    0.000000
     7  H    1.781465   0.000000
 Stoichiometry    C2H3O2(1-)
 Framework group  C1[X(C2H3O2)]
 Deg. of freedom    15
 Full point group                 C1      NOp   1
 Largest Abelian subgroup         C1      NOp   1
 Largest concise Abelian subgroup C1      NOp   1
                         Standard orientation:                         
 ---------------------------------------------------------------------
 Center     Atomic      Atomic             Coordinates (Angstroms)
 Number     Number       Type             X           Y           Z
 ---------------------------------------------------------------------
      1          6           0        1.351431   -0.048260   -0.000989
      2          6           0       -0.208692    0.001370   -0.001934
      3          8           0       -0.703759    1.161393    0.000361
      4          8           0       -0.801982   -1.111100    0.000374
      5          1           0        1.739818    0.537905   -0.837871
      6          1           0        1.727371    0.413352    0.916327
      7          1           0        1.722305   -1.072262   -0.066803
 ---------------------------------------------------------------------
 Rotational constants (GHZ):          11.3510283           9.9458736           5.4801998
 Leave Link  202 at Tue Jan  2 10:05:40 2018, MaxMem=  3211264000 cpu:               0.0 elap:               0.0
 (Enter /hpc2n/eb/software/Core/gaussian/16.A.03-AVX2/g16/l301.exe)
 General basis read from cards:  (5D, 7F)
 Centers:       5      6      7
 S 3 1.00
     Exponent=  3.3870000000D+01 Coefficients=  6.0680000000D-03
     Exponent=  5.0950000000D+00 Coefficients=  4.5308000000D-02
     Exponent=  1.1590000000D+00 Coefficients=  2.0282200000D-01
 S 1 1.00
     Exponent=  3.2580000000D-01 Coefficients=  1.0000000000D+00
 S 1 1.00
     Exponent=  1.0270000000D-01 Coefficients=  1.0000000000D+00
 S 1 1.00
     Exponent=  2.5260000000D-02 Coefficients=  1.0000000000D+00
 P 1 1.00
     Exponent=  1.4070000000D+00 Coefficients=  1.0000000000D+00
 P 1 1.00
     Exponent=  3.8800000000D-01 Coefficients=  1.0000000000D+00
 P 1 1.00
     Exponent=  1.0200000000D-01 Coefficients=  1.0000000000D+00
 D 1 1.00
     Exponent=  1.0570000000D+00 Coefficients=  1.0000000000D+00
 D 1 1.00
     Exponent=  2.4700000000D-01 Coefficients=  1.0000000000D+00
 ****
 Centers:       1      2
 S 8 1.00
     Exponent=  8.2360000000D+03 Coefficients=  5.3100000000D-04
     Exponent=  1.2350000000D+03 Coefficients=  4.1080000000D-03
     Exponent=  2.8080000000D+02 Coefficients=  2.1087000000D-02
     Exponent=  7.9270000000D+01 Coefficients=  8.1853000000D-02
     Exponent=  2.5590000000D+01 Coefficients=  2.3481700000D-01
     Exponent=  8.9970000000D+00 Coefficients=  4.3440100000D-01
     Exponent=  3.3190000000D+00 Coefficients=  3.4612900000D-01
     Exponent=  3.6430000000D-01 Coefficients= -8.9830000000D-03
 S 8 1.00
     Exponent=  8.2360000000D+03 Coefficients= -1.1300000000D-04
     Exponent=  1.2350000000D+03 Coefficients= -8.7800000000D-04
     Exponent=  2.8080000000D+02 Coefficients= -4.5400000000D-03
     Exponent=  7.9270000000D+01 Coefficients= -1.8133000000D-02
     Exponent=  2.5590000000D+01 Coefficients= -5.5760000000D-02
     Exponent=  8.9970000000D+00 Coefficients= -1.2689500000D-01
     Exponent=  3.3190000000D+00 Coefficients= -1.7035200000D-01
     Exponent=  3.6430000000D-01 Coefficients=  5.9868400000D-01
 S 1 1.00
     Exponent=  9.0590000000D-01 Coefficients=  1.0000000000D+00
 S 1 1.00
     Exponent=  1.2850000000D-01 Coefficients=  1.0000000000D+00
 S 1 1.00
     Exponent=  4.4020000000D-02 Coefficients=  1.0000000000D+00
 P 3 1.00
     Exponent=  1.8710000000D+01 Coefficients=  1.4031000000D-02
     Exponent=  4.1330000000D+00 Coefficients=  8.6866000000D-02
     Exponent=  1.2000000000D+00 Coefficients=  2.9021600000D-01
 P 1 1.00
     Exponent=  3.8270000000D-01 Coefficients=  1.0000000000D+00
 P 1 1.00
     Exponent=  1.2090000000D-01 Coefficients=  1.0000000000D+00
 P 1 1.00
     Exponent=  3.5690000000D-02 Coefficients=  1.0000000000D+00
 D 1 1.00
     Exponent=  1.0970000000D+00 Coefficients=  1.0000000000D+00
 D 1 1.00
     Exponent=  3.1800000000D-01 Coefficients=  1.0000000000D+00
 D 1 1.00
     Exponent=  1.0000000000D-01 Coefficients=  1.0000000000D+00
 F 1 1.00
     Exponent=  7.6100000000D-01 Coefficients=  1.0000000000D+00
 F 1 1.00
     Exponent=  2.6800000000D-01 Coefficients=  1.0000000000D+00
 ****
 Centers:       3      4
 S 8 1.00
     Exponent=  1.5330000000D+04 Coefficients=  5.0800000000D-04
     Exponent=  2.2990000000D+03 Coefficients=  3.9290000000D-03
     Exponent=  5.2240000000D+02 Coefficients=  2.0243000000D-02
     Exponent=  1.4730000000D+02 Coefficients=  7.9181000000D-02
     Exponent=  4.7550000000D+01 Coefficients=  2.3068700000D-01
     Exponent=  1.6760000000D+01 Coefficients=  4.3311800000D-01
     Exponent=  6.2070000000D+00 Coefficients=  3.5026000000D-01
     Exponent=  6.8820000000D-01 Coefficients= -8.1540000000D-03
 S 8 1.00
     Exponent=  1.5330000000D+04 Coefficients= -1.1500000000D-04
     Exponent=  2.2990000000D+03 Coefficients= -8.9500000000D-04
     Exponent=  5.2240000000D+02 Coefficients= -4.6360000000D-03
     Exponent=  1.4730000000D+02 Coefficients= -1.8724000000D-02
     Exponent=  4.7550000000D+01 Coefficients= -5.8463000000D-02
     Exponent=  1.6760000000D+01 Coefficients= -1.3646300000D-01
     Exponent=  6.2070000000D+00 Coefficients= -1.7574000000D-01
     Exponent=  6.8820000000D-01 Coefficients=  6.0341800000D-01
 S 1 1.00
     Exponent=  1.7520000000D+00 Coefficients=  1.0000000000D+00
 S 1 1.00
     Exponent=  2.3840000000D-01 Coefficients=  1.0000000000D+00
 S 1 1.00
     Exponent=  7.3760000000D-02 Coefficients=  1.0000000000D+00
 P 3 1.00
     Exponent=  3.4460000000D+01 Coefficients=  1.5928000000D-02
     Exponent=  7.7490000000D+00 Coefficients=  9.9740000000D-02
     Exponent=  2.2800000000D+00 Coefficients=  3.1049200000D-01
 P 1 1.00
     Exponent=  7.1560000000D-01 Coefficients=  1.0000000000D+00
 P 1 1.00
     Exponent=  2.1400000000D-01 Coefficients=  1.0000000000D+00
 P 1 1.00
     Exponent=  5.9740000000D-02 Coefficients=  1.0000000000D+00
 D 1 1.00
     Exponent=  2.3140000000D+00 Coefficients=  1.0000000000D+00
 D 1 1.00
     Exponent=  6.4500000000D-01 Coefficients=  1.0000000000D+00
 D 1 1.00
     Exponent=  2.1400000000D-01 Coefficients=  1.0000000000D+00
 F 1 1.00
     Exponent=  1.4280000000D+00 Coefficients=  1.0000000000D+00
 F 1 1.00
     Exponent=  5.0000000000D-01 Coefficients=  1.0000000000D+00
 ****
 Ernie: Thresh=  0.10000D-02 Tol=  0.10000D-05 Strict=F.
 Ernie:  12 primitive shells out of 153 were deleted.
 There are   295 symmetry adapted cartesian basis functions of A   symmetry.
 There are   253 symmetry adapted basis functions of A   symmetry.
   253 basis functions,   369 primitive gaussians,   295 cartesian basis functions
    16 alpha electrons       16 beta electrons
       nuclear repulsion energy       111.3982684482 Hartrees.
 IExCor=  402 DFT=T Ex+Corr=B3LYP ExCW=0 ScaHFX=  0.200000
 ScaDFX=  0.800000  0.720000  1.000000  0.810000 ScalE2=  1.000000  1.000000
 IRadAn=      7 IRanWt=     -1 IRanGd=            0 ICorTp=0 IEmpDi=  4
 NAtoms=    7 NActive=    7 NUniq=    7 SFac= 1.00D+00 NAtFMM=   60 NAOKFM=F Big=F
 Integral buffers will be    131072 words long.
 Raffenetti 2 integral format.
 Two-electron integral symmetry is turned on.
 Leave Link  301 at Tue Jan  2 10:05:41 2018, MaxMem=  3211264000 cpu:               1.1 elap:               1.1
 (Enter /hpc2n/eb/software/Core/gaussian/16.A.03-AVX2/g16/l302.exe)
 NPDir=0 NMtPBC=     1 NCelOv=     1 NCel=       1 NClECP=     1 NCelD=      1
         NCelK=      1 NCelE2=     1 NClLst=     1 CellRange=     0.0.
 One-electron integrals computed using PRISM.
 One-electron integral symmetry used in STVInt
 NBasis=   253 RedAO= T EigKep=  3.54D-05  NBF=   253
 NBsUse=   253 1.00D-06 EigRej= -1.00D+00 NBFU=   253
 Precomputing XC quadrature grid using
 IXCGrd= 4 IRadAn=           7 IRanWt=          -1 IRanGd=           0 AccXCQ= 0.00D+00.
 Generated NRdTot=       0 NPtTot=           0 NUsed=           0 NTot=          32
 NSgBfM=   295   295   295   295   295 MxSgAt=     7 MxSgA2=     7.
 Leave Link  302 at Tue Jan  2 10:05:42 2018, MaxMem=  3211264000 cpu:               0.4 elap:               0.4
 (Enter /hpc2n/eb/software/Core/gaussian/16.A.03-AVX2/g16/l303.exe)
 DipDrv:  MaxL=1.
 Leave Link  303 at Tue Jan  2 10:05:42 2018, MaxMem=  3211264000 cpu:               0.1 elap:               0.1
 (Enter /hpc2n/eb/software/Core/gaussian/16.A.03-AVX2/g16/l401.exe)
 ExpMin= 2.53D-02 ExpMax= 1.53D+04 ExpMxC= 5.22D+02 IAcc=3 IRadAn=         7 AccDes= 0.00D+00
 Harris functional with IExCor=  402 and IRadAn=       7 diagonalized for initial guess.
 HarFok:  IExCor=  402 AccDes= 0.00D+00 IRadAn=         7 IDoV= 1 UseB2=F ITyADJ=14
 ICtDFT=  3500011 ScaDFX=  1.000000  1.000000  1.000000  1.000000
 FoFCou: FMM=F IPFlag=           0 FMFlag=      100000 FMFlg1=           0
         NFxFlg=           0 DoJE=T BraDBF=F KetDBF=T FulRan=T
         wScrn=  0.000000 ICntrl=       500 IOpCl=  0 I1Cent=   200000004 NGrid=           0
         NMat0=    1 NMatS0=      1 NMatT0=    0 NMatD0=    1 NMtDS0=    0 NMtDT0=    0
 Petite list used in FoFCou.
 Harris En= -228.844625797471    
 JPrj=0 DoOrth=F DoCkMO=F.
 Leave Link  401 at Tue Jan  2 10:05:48 2018, MaxMem=  3211264000 cpu:               6.0 elap:               6.0
 (Enter /hpc2n/eb/software/Core/gaussian/16.A.03-AVX2/g16/l502.exe)
 Keep R1 ints in memory in canonical form, NReq=529184894.
 FoFCou: FMM=F IPFlag=           0 FMFlag=           0 FMFlg1=           0
         NFxFlg=           0 DoJE=F BraDBF=F KetDBF=F FulRan=T
         wScrn=  0.000000 ICntrl=       600 IOpCl=  0 I1Cent=           0 NGrid=           0
         NMat0=    1 NMatS0=  32131 NMatT0=    0 NMatD0=    1 NMtDS0=    0 NMtDT0=    0
 Symmetry not used in FoFCou.
 Two-electron integral symmetry not used.
 Closed shell SCF:
 Using DIIS extrapolation, IDIIS=  1040.
 NGot=  3211264000 LenX=  2694869039 LenY=  2694781573
 Requested convergence on RMS density matrix=1.00D-08 within 128 cycles.
 Requested convergence on MAX density matrix=1.00D-06.
 Requested convergence on             energy=1.00D-06.
 No special actions if energy rises.

 Cycle   1  Pass 1  IDiag  1:
 E= -228.378865705640    
 DIIS: error= 3.34D-02 at cycle   1 NSaved=   1.
 NSaved= 1 IEnMin= 1 EnMin= -228.378865705640     IErMin= 1 ErrMin= 3.34D-02
 ErrMax= 3.34D-02  0.00D+00 EMaxC= 1.00D-01 BMatC= 3.08D-01 BMatP= 3.08D-01
 IDIUse=3 WtCom= 6.66D-01 WtEn= 3.34D-01
 Coeff-Com:  0.100D+01
 Coeff-En:   0.100D+01
 Coeff:      0.100D+01
 Gap=     0.194 Goal=   None    Shift=    0.000
 GapD=    0.194 DampG=1.000 DampE=0.500 DampFc=0.5000 IDamp=-1.
 Damping current iteration by 5.00D-01
 RMSDP=5.66D-01 MaxDP=4.76D+01              OVMax= 9.84D-01

 Cycle   2  Pass 1  IDiag  1:
 E= -226.912287944455     Delta-E=        1.466577761185 Rises=F Damp=T
 DIIS: error= 3.86D-02 at cycle   2 NSaved=   2.
 NSaved= 2 IEnMin= 1 EnMin= -228.378865705640     IErMin= 1 ErrMin= 3.34D-02
 ErrMax= 3.86D-02  0.00D+00 EMaxC= 1.00D-01 BMatC= 4.36D-01 BMatP= 3.08D-01
 IDIUse=2 WtCom= 0.00D+00 WtEn= 1.00D+00
 Coeff-En:   0.889D+00 0.111D+00
 Coeff:      0.889D+00 0.111D+00
 Gap=    -0.086 Goal=   None    Shift=    0.000
 RMSDP=2.82D-01 MaxDP=2.38D+01 DE= 1.47D+00 OVMax= 9.93D-01

 Cycle   3  Pass 1  IDiag  1:
 E= -228.369899851551     Delta-E=       -1.457611907096 Rises=F Damp=F
 DIIS: error= 3.59D-02 at cycle   3 NSaved=   3.
 NSaved= 3 IEnMin= 1 EnMin= -228.378865705640     IErMin= 1 ErrMin= 3.34D-02
 ErrMax= 3.59D-02  0.00D+00 EMaxC= 1.00D-01 BMatC= 3.44D-01 BMatP= 3.08D-01
 IDIUse=2 WtCom= 0.00D+00 WtEn= 1.00D+00
 Coeff-En:   0.508D+00 0.000D+00 0.492D+00
 Coeff:      0.508D+00 0.000D+00 0.492D+00
 Gap=     0.131 Goal=   None    Shift=    0.000
 RMSDP=3.76D-03 MaxDP=3.09D-01 DE=-1.46D+00 OVMax= 1.32D-01

 Cycle   4  Pass 1  IDiag  1:
 E= -228.616491918576     Delta-E=       -0.246592067025 Rises=F Damp=F
 DIIS: error= 6.30D-03 at cycle   4 NSaved=   4.
 NSaved= 4 IEnMin= 4 EnMin= -228.616491918576     IErMin= 4 ErrMin= 6.30D-03
 ErrMax= 6.30D-03  0.00D+00 EMaxC= 1.00D-01 BMatC= 6.58D-03 BMatP= 3.08D-01
 IDIUse=3 WtCom= 9.37D-01 WtEn= 6.30D-02
 Coeff-Com:  0.194D+00-0.112D-01 0.226D+00 0.591D+00
 Coeff-En:   0.000D+00 0.000D+00 0.000D+00 0.100D+01
 Coeff:      0.181D+00-0.105D-01 0.212D+00 0.617D+00
 Gap=     0.135 Goal=   None    Shift=    0.000
 RMSDP=2.66D-04 MaxDP=1.01D-02 DE=-2.47D-01 OVMax= 3.43D-02

 Cycle   5  Pass 1  IDiag  1:
 E= -228.620354359905     Delta-E=       -0.003862441329 Rises=F Damp=F
 DIIS: error= 3.59D-03 at cycle   5 NSaved=   5.
 NSaved= 5 IEnMin= 5 EnMin= -228.620354359905     IErMin= 5 ErrMin= 3.59D-03
 ErrMax= 3.59D-03  0.00D+00 EMaxC= 1.00D-01 BMatC= 1.84D-03 BMatP= 6.58D-03
 IDIUse=3 WtCom= 9.64D-01 WtEn= 3.59D-02
 Coeff-Com:  0.219D-01-0.153D-01 0.340D-01 0.348D+00 0.612D+00
 Coeff-En:   0.000D+00 0.000D+00 0.000D+00 0.232D+00 0.768D+00
 Coeff:      0.211D-01-0.147D-01 0.327D-01 0.344D+00 0.617D+00
 Gap=     0.134 Goal=   None    Shift=    0.000
 RMSDP=1.08D-04 MaxDP=2.79D-03 DE=-3.86D-03 OVMax= 1.00D-02

 Cycle   6  Pass 1  IDiag  1:
 E= -228.621650652545     Delta-E=       -0.001296292640 Rises=F Damp=F
 DIIS: error= 7.80D-04 at cycle   6 NSaved=   6.
 NSaved= 6 IEnMin= 6 EnMin= -228.621650652545     IErMin= 6 ErrMin= 7.80D-04
 ErrMax= 7.80D-04  0.00D+00 EMaxC= 1.00D-01 BMatC= 1.63D-04 BMatP= 1.84D-03
 IDIUse=3 WtCom= 9.92D-01 WtEn= 7.80D-03
 Coeff-Com:  0.663D-02-0.559D-02-0.694D-02 0.562D-01 0.168D+00 0.782D+00
 Coeff-En:   0.000D+00 0.000D+00 0.000D+00 0.000D+00 0.000D+00 0.100D+01
 Coeff:      0.658D-02-0.555D-02-0.689D-02 0.557D-01 0.167D+00 0.783D+00
 Gap=     0.139 Goal=   None    Shift=    0.000
 RMSDP=9.48D-05 MaxDP=3.95D-03 DE=-1.30D-03 OVMax= 4.49D-03

 Cycle   7  Pass 1  IDiag  1:
 E= -228.621798563399     Delta-E=       -0.000147910855 Rises=F Damp=F
 DIIS: error= 2.93D-04 at cycle   7 NSaved=   7.
 NSaved= 7 IEnMin= 7 EnMin= -228.621798563399     IErMin= 7 ErrMin= 2.93D-04
 ErrMax= 2.93D-04  0.00D+00 EMaxC= 1.00D-01 BMatC= 3.07D-05 BMatP= 1.63D-04
 IDIUse=3 WtCom= 9.97D-01 WtEn= 2.93D-03
 Coeff-Com:  0.375D-02-0.323D-02-0.782D-02 0.842D-02 0.592D-01 0.519D+00
 Coeff-Com:  0.420D+00
 Coeff-En:   0.000D+00 0.000D+00 0.000D+00 0.000D+00 0.000D+00 0.000D+00
 Coeff-En:   0.100D+01
 Coeff:      0.374D-02-0.322D-02-0.780D-02 0.839D-02 0.590D-01 0.518D+00
 Coeff:      0.422D+00
 Gap=     0.140 Goal=   None    Shift=    0.000
 RMSDP=2.51D-05 MaxDP=1.26D-03 DE=-1.48D-04 OVMax= 2.22D-03

 Cycle   8  Pass 1  IDiag  1:
 E= -228.621819656096     Delta-E=       -0.000021092696 Rises=F Damp=F
 DIIS: error= 1.44D-04 at cycle   8 NSaved=   8.
 NSaved= 8 IEnMin= 8 EnMin= -228.621819656096     IErMin= 8 ErrMin= 1.44D-04
 ErrMax= 1.44D-04  0.00D+00 EMaxC= 1.00D-01 BMatC= 5.68D-06 BMatP= 3.07D-05
 IDIUse=3 WtCom= 9.99D-01 WtEn= 1.44D-03
 Coeff-Com:  0.575D-04-0.369D-03-0.159D-02-0.213D-01-0.479D-01-0.726D-01
 Coeff-Com:  0.280D+00 0.864D+00
 Coeff-En:   0.000D+00 0.000D+00 0.000D+00 0.000D+00 0.000D+00 0.000D+00
 Coeff-En:   0.000D+00 0.100D+01
 Coeff:      0.574D-04-0.368D-03-0.159D-02-0.213D-01-0.478D-01-0.725D-01
 Coeff:      0.279D+00 0.864D+00
 Gap=     0.140 Goal=   None    Shift=    0.000
 RMSDP=2.15D-05 MaxDP=9.04D-04 DE=-2.11D-05 OVMax= 9.68D-04

 Cycle   9  Pass 1  IDiag  1:
 E= -228.621824745216     Delta-E=       -0.000005089121 Rises=F Damp=F
 DIIS: error= 1.48D-05 at cycle   9 NSaved=   9.
 NSaved= 9 IEnMin= 9 EnMin= -228.621824745216     IErMin= 9 ErrMin= 1.48D-05
 ErrMax= 1.48D-05  0.00D+00 EMaxC= 1.00D-01 BMatC= 4.16D-08 BMatP= 5.68D-06
 IDIUse=1 WtCom= 1.00D+00 WtEn= 0.00D+00
 Coeff-Com: -0.115D-03-0.576D-04 0.170D-03-0.288D-02-0.102D-01-0.314D-01
 Coeff-Com:  0.213D-01 0.126D+00 0.897D+00
 Coeff:     -0.115D-03-0.576D-04 0.170D-03-0.288D-02-0.102D-01-0.314D-01
 Coeff:      0.213D-01 0.126D+00 0.897D+00
 Gap=     0.140 Goal=   None    Shift=    0.000
 RMSDP=2.40D-06 MaxDP=9.69D-05 DE=-5.09D-06 OVMax= 1.19D-04

 Cycle  10  Pass 1  IDiag  1:
 E= -228.621824795042     Delta-E=       -0.000000049826 Rises=F Damp=F
 DIIS: error= 3.10D-06 at cycle  10 NSaved=  10.
 NSaved=10 IEnMin=10 EnMin= -228.621824795042     IErMin=10 ErrMin= 3.10D-06
 ErrMax= 3.10D-06  0.00D+00 EMaxC= 1.00D-01 BMatC= 1.79D-09 BMatP= 4.16D-08
 IDIUse=1 WtCom= 1.00D+00 WtEn= 0.00D+00
 Coeff-Com:  0.208D-05-0.485D-06 0.644D-04 0.177D-03-0.202D-03-0.158D-02
 Coeff-Com: -0.684D-02-0.153D-01 0.120D+00 0.903D+00
 Coeff:      0.208D-05-0.485D-06 0.644D-04 0.177D-03-0.202D-03-0.158D-02
 Coeff:     -0.684D-02-0.153D-01 0.120D+00 0.903D+00
 Gap=     0.140 Goal=   None    Shift=    0.000
 RMSDP=4.39D-07 MaxDP=1.63D-05 DE=-4.98D-08 OVMax= 2.52D-05

 Cycle  11  Pass 1  IDiag  1:
 E= -228.621824796920     Delta-E=       -0.000000001878 Rises=F Damp=F
 DIIS: error= 3.52D-07 at cycle  11 NSaved=  11.
 NSaved=11 IEnMin=11 EnMin= -228.621824796920     IErMin=11 ErrMin= 3.52D-07
 ErrMax= 3.52D-07  0.00D+00 EMaxC= 1.00D-01 BMatC= 2.00D-11 BMatP= 1.79D-09
 IDIUse=1 WtCom= 1.00D+00 WtEn= 0.00D+00
 Coeff-Com:  0.461D-05 0.200D-06 0.677D-05 0.251D-04 0.557D-04 0.183D-03
 Coeff-Com: -0.123D-02-0.364D-02 0.914D-02 0.164D+00 0.831D+00
 Coeff:      0.461D-05 0.200D-06 0.677D-05 0.251D-04 0.557D-04 0.183D-03
 Coeff:     -0.123D-02-0.364D-02 0.914D-02 0.164D+00 0.831D+00
 Gap=     0.140 Goal=   None    Shift=    0.000
 RMSDP=3.01D-08 MaxDP=1.22D-06 DE=-1.88D-09 OVMax= 2.06D-06

 Cycle  12  Pass 1  IDiag  1:
 E= -228.621824796938     Delta-E=       -0.000000000018 Rises=F Damp=F
 DIIS: error= 5.74D-08 at cycle  12 NSaved=  12.
 NSaved=12 IEnMin=12 EnMin= -228.621824796938     IErMin=12 ErrMin= 5.74D-08
 ErrMax= 5.74D-08  0.00D+00 EMaxC= 1.00D-01 BMatC= 1.07D-12 BMatP= 2.00D-11
 IDIUse=1 WtCom= 1.00D+00 WtEn= 0.00D+00
 Coeff-Com:  0.156D-05 0.119D-06-0.824D-07 0.879D-05 0.382D-04 0.152D-03
 Coeff-Com: -0.124D-03-0.701D-03-0.184D-02 0.183D-01 0.202D+00 0.782D+00
 Coeff:      0.156D-05 0.119D-06-0.824D-07 0.879D-05 0.382D-04 0.152D-03
 Coeff:     -0.124D-03-0.701D-03-0.184D-02 0.183D-01 0.202D+00 0.782D+00
 Gap=     0.140 Goal=   None    Shift=    0.000
 RMSDP=4.87D-09 MaxDP=1.11D-07 DE=-1.81D-11 OVMax= 4.72D-07

 SCF Done:  E(RB3LYP) =  -228.621824797     A.U. after   12 cycles
            NFock= 12  Conv=0.49D-08     -V/T= 2.0063
 KE= 2.271957357289D+02 PE=-7.673420483914D+02 EE= 2.001262194174D+02
 Leave Link  502 at Tue Jan  2 10:07:50 2018, MaxMem=  3211264000 cpu:             121.6 elap:             121.6
 (Enter /hpc2n/eb/software/Core/gaussian/16.A.03-AVX2/g16/l801.exe)
 DoSCS=F DFT=T ScalE2(SS,OS)=  1.000000  1.000000
 Range of M.O.s used for correlation:     1   253
 NBasis=   253 NAE=    16 NBE=    16 NFC=     0 NFV=     0
 NROrb=    253 NOA=    16 NOB=    16 NVA=   237 NVB=   237

 **** Warning!!: The largest alpha MO coefficient is  0.38680945D+02

 Leave Link  801 at Tue Jan  2 10:07:50 2018, MaxMem=  3211264000 cpu:               0.1 elap:               0.0
 (Enter /hpc2n/eb/software/Core/gaussian/16.A.03-AVX2/g16/l1101.exe)
 Using compressed storage, NAtomX=     7.
 Will process      8 centers per pass.
 Leave Link 1101 at Tue Jan  2 10:07:50 2018, MaxMem=  3211264000 cpu:               0.3 elap:               0.3
 (Enter /hpc2n/eb/software/Core/gaussian/16.A.03-AVX2/g16/l1102.exe)
 Symmetrizing basis deriv contribution to polar:
 IMax=3 JMax=2 DiffMx= 0.00D+00
 Leave Link 1102 at Tue Jan  2 10:07:50 2018, MaxMem=  3211264000 cpu:               0.1 elap:               0.1
 (Enter /hpc2n/eb/software/Core/gaussian/16.A.03-AVX2/g16/l1110.exe)
 Forming Gx(P) for the SCF density, NAtomX=     7.
 Integral derivatives from FoFJK, PRISM(SPDF).
 Do as many integral derivatives as possible in FoFJK.
 G2DrvN: MDV=    3211263360.
 G2DrvN: will do     8 centers at a time, making    1 passes.
 Calling FoFCou, ICntrl=  3107 FMM=F I1Cent=   0 AccDes= 0.00D+00.
 FoFJK:  IHMeth= 1 ICntrl=    3107 DoSepK=F KAlg= 0 I1Cent=           0 FoldK=F
 IRaf=         0 NMat=       1 IRICut=       1 DoRegI=T DoRafI=F ISym2E= 0 IDoP0=0 IntGTp=1.
 FoFCou: FMM=F IPFlag=           0 FMFlag=      100000 FMFlg1=           0
         NFxFlg=           0 DoJE=F BraDBF=F KetDBF=F FulRan=T
         wScrn=  0.000000 ICntrl=      3107 IOpCl=  0 I1Cent=           0 NGrid=           0
         NMat0=    1 NMatS0=      1 NMatT0=    0 NMatD0=    1 NMtDS0=    0 NMtDT0=    0
 Symmetry not used in FoFCou.
 End of G2Drv F.D. properties file   721 does not exist.
 End of G2Drv F.D. properties file   722 does not exist.
 End of G2Drv F.D. properties file   788 does not exist.
 Leave Link 1110 at Tue Jan  2 10:12:59 2018, MaxMem=  3211264000 cpu:             309.2 elap:             309.2
 (Enter /hpc2n/eb/software/Core/gaussian/16.A.03-AVX2/g16/l1002.exe)
 Minotr:  Closed shell wavefunction.
          IDoAtm=1111111
          Direct CPHF calculation.
          Differentiating once with respect to electric field.
                with respect to dipole field.
          Differentiating once with respect to nuclear coordinates.
          Requested convergence is 1.0D-08 RMS, and 1.0D-07 maximum.
          Secondary convergence is 1.0D-12 RMS, and 1.0D-12 maximum.
          NewPWx=T KeepS1=F KeepF1=F KeepIn=T MapXYZ=F SortEE=F KeepMc=T.
         3214 words used for storage of precomputed grid.
 Keep R1 ints in memory in canonical form, NReq=529189603.
 FoFCou: FMM=F IPFlag=           0 FMFlag=           0 FMFlg1=           0
         NFxFlg=           0 DoJE=F BraDBF=F KetDBF=F FulRan=T
         wScrn=  0.000000 ICntrl=       600 IOpCl=  0 I1Cent=           0 NGrid=           0
         NMat0=    1 NMatS0=  32131 NMatT0=    0 NMatD0=    1 NMtDS0=    0 NMtDT0=    0
 Symmetry not used in FoFCou.
 Two-electron integral symmetry not used.
          MDV=    3211264000 using IRadAn=       4.
          Solving linear equations simultaneously, MaxMat=       0.
          There are    24 degrees of freedom in the 1st order CPHF.  IDoFFX=6 NUNeed=     3.
     21 vectors produced by pass  0 Test12= 1.58D-14 4.17D-09 XBig12= 5.07D+01 4.07D+00.
 AX will form    21 AO Fock derivatives at one time.
     21 vectors produced by pass  1 Test12= 1.58D-14 4.17D-09 XBig12= 2.84D+01 1.62D+00.
     21 vectors produced by pass  2 Test12= 1.58D-14 4.17D-09 XBig12= 4.25D-01 2.11D-01.
     21 vectors produced by pass  3 Test12= 1.58D-14 4.17D-09 XBig12= 2.88D-03 1.50D-02.
     21 vectors produced by pass  4 Test12= 1.58D-14 4.17D-09 XBig12= 1.21D-05 8.04D-04.
     21 vectors produced by pass  5 Test12= 1.58D-14 4.17D-09 XBig12= 3.28D-08 3.21D-05.
     12 vectors produced by pass  6 Test12= 1.58D-14 4.17D-09 XBig12= 6.71D-11 1.60D-06.
      3 vectors produced by pass  7 Test12= 1.58D-14 4.17D-09 XBig12= 1.17D-13 6.79D-08.
 InvSVY:  IOpt=1 It=  1 EMax= 4.44D-15
 Solved reduced A of dimension   141 with    24 vectors.
 FullF1:  Do perturbations      1 to       3.
 Isotropic polarizability for W=    0.000000       48.65 Bohr**3.
 End of Minotr F.D. properties file   721 does not exist.
 End of Minotr F.D. properties file   722 does not exist.
 End of Minotr F.D. properties file   788 does not exist.
 Leave Link 1002 at Tue Jan  2 10:17:37 2018, MaxMem=  3211264000 cpu:             277.3 elap:             277.4
 (Enter /hpc2n/eb/software/Core/gaussian/16.A.03-AVX2/g16/l601.exe)
 Copying SCF densities to generalized density rwf, IOpCl= 0 IROHF=0.
 SCF density gives NOpUse=  1 NOpAll=  1.

 **********************************************************************

            Population analysis using the SCF density.

 **********************************************************************

 Orbital symmetries:
 BldTbl:  Degeneracy threshold= 1.00D-02
       Occupied  (A) (A) (A) (A) (A) (A) (A) (A) (A) (A) (A) (A)
                 (A) (A) (A) (A)
       Virtual   (A) (A) (A) (A) (A) (A) (A) (A) (A) (A) (A) (A)
                 (A) (A) (A) (A) (A) (A) (A) (A) (A) (A) (A) (A)
                 (A) (A) (A) (A) (A) (A) (A) (A) (A) (A) (A) (A)
                 (A) (A) (A) (A) (A) (A) (A) (A) (A) (A) (A) (A)
                 (A) (A) (A) (A) (A) (A) (A) (A) (A) (A) (A) (A)
                 (A) (A) (A) (A) (A) (A) (A) (A) (A) (A) (A) (A)
                 (A) (A) (A) (A) (A) (A) (A) (A) (A) (A) (A) (A)
                 (A) (A) (A) (A) (A) (A) (A) (A) (A) (A) (A) (A)
                 (A) (A) (A) (A) (A) (A) (A) (A) (A) (A) (A) (A)
                 (A) (A) (A) (A) (A) (A) (A) (A) (A) (A) (A) (A)
                 (A) (A) (A) (A) (A) (A) (A) (A) (A) (A) (A) (A)
                 (A) (A) (A) (A) (A) (A) (A) (A) (A) (A) (A) (A)
                 (A) (A) (A) (A) (A) (A) (A) (A) (A) (A) (A) (A)
                 (A) (A) (A) (A) (A) (A) (A) (A) (A) (A) (A) (A)
                 (A) (A) (A) (A) (A) (A) (A) (A) (A) (A) (A) (A)
                 (A) (A) (A) (A) (A) (A) (A) (A) (A) (A) (A) (A)
                 (A) (A) (A) (A) (A) (A) (A) (A) (A) (A) (A) (A)
                 (A) (A) (A) (A) (A) (A) (A) (A) (A) (A) (A) (A)
                 (A) (A) (A) (A) (A) (A) (A) (A) (A) (A) (A) (A)
                 (A) (A) (A) (A) (A) (A) (A) (A) (A)
 The electronic state is 1-A.
 Alpha  occ. eigenvalues --  -18.87175 -18.87000 -10.06366  -9.99121  -0.81983
 Alpha  occ. eigenvalues --   -0.73569  -0.53506  -0.30711  -0.25193  -0.24364
 Alpha  occ. eigenvalues --   -0.22835  -0.19211  -0.16683  -0.05524  -0.04299
 Alpha  occ. eigenvalues --   -0.03674
 Alpha virt. eigenvalues --    0.10376   0.12260   0.12355   0.15165   0.18475
 Alpha virt. eigenvalues --    0.18956   0.19560   0.20280   0.20732   0.20780
 Alpha virt. eigenvalues --    0.23300   0.25441   0.25989   0.27071   0.29522
 Alpha virt. eigenvalues --    0.29916   0.30228   0.32214   0.33023   0.34929
 Alpha virt. eigenvalues --    0.35275   0.36349   0.37639   0.40064   0.40824
 Alpha virt. eigenvalues --    0.40996   0.42516   0.42897   0.44482   0.45842
 Alpha virt. eigenvalues --    0.46766   0.46896   0.49201   0.50348   0.50984
 Alpha virt. eigenvalues --    0.51391   0.52756   0.55956   0.58159   0.58656
 Alpha virt. eigenvalues --    0.59899   0.61815   0.64520   0.65213   0.66645
 Alpha virt. eigenvalues --    0.68071   0.75636   0.76288   0.77977   0.78537
 Alpha virt. eigenvalues --    0.80340   0.82938   0.83361   0.85177   0.86803
 Alpha virt. eigenvalues --    0.88189   0.88332   0.90671   0.92220   0.92757
 Alpha virt. eigenvalues --    0.94127   0.95029   0.96280   0.97373   0.98604
 Alpha virt. eigenvalues --    1.00728   1.01267   1.03191   1.06195   1.06567
 Alpha virt. eigenvalues --    1.07953   1.10243   1.11133   1.11957   1.12964
 Alpha virt. eigenvalues --    1.13479   1.18119   1.19298   1.21162   1.23138
 Alpha virt. eigenvalues --    1.26238   1.26998   1.28109   1.28979   1.32339
 Alpha virt. eigenvalues --    1.37604   1.41557   1.42402   1.43152   1.45668
 Alpha virt. eigenvalues --    1.47440   1.50612   1.53436   1.54512   1.56946
 Alpha virt. eigenvalues --    1.57776   1.59674   1.62014   1.62626   1.63681
 Alpha virt. eigenvalues --    1.66500   1.71654   1.72837   1.73383   1.79097
 Alpha virt. eigenvalues --    1.79575   1.80695   1.84750   1.89330   1.91342
 Alpha virt. eigenvalues --    1.92603   1.99161   2.02661   2.04964   2.06688
 Alpha virt. eigenvalues --    2.10532   2.15401   2.16210   2.20964   2.22874
 Alpha virt. eigenvalues --    2.25137   2.27710   2.32813   2.38826   2.40010
 Alpha virt. eigenvalues --    2.40638   2.46596   2.48088   2.49906   2.51854
 Alpha virt. eigenvalues --    2.53742   2.55610   2.59383   2.66346   2.67274
 Alpha virt. eigenvalues --    2.70282   2.71015   2.77954   2.81082   2.88351
 Alpha virt. eigenvalues --    2.88389   2.92187   2.93759   2.95907   3.03628
 Alpha virt. eigenvalues --    3.08201   3.16709   3.24863   3.27402   3.31091
 Alpha virt. eigenvalues --    3.34744   3.38751   3.39969   3.43920   3.48355
 Alpha virt. eigenvalues --    3.49882   3.53976   3.60575   3.60793   3.65566
 Alpha virt. eigenvalues --    3.70249   3.74017   3.78481   3.79625   3.80350
 Alpha virt. eigenvalues --    3.89330   3.91640   3.92038   3.94068   3.95780
 Alpha virt. eigenvalues --    3.99103   4.03324   4.10470   4.12126   4.16039
 Alpha virt. eigenvalues --    4.21442   4.23954   4.31704   4.35341   4.38484
 Alpha virt. eigenvalues --    4.43740   4.50019   4.57718   4.61044   4.61695
 Alpha virt. eigenvalues --    4.66986   4.68992   4.77073   4.79447   4.81489
 Alpha virt. eigenvalues --    4.85008   4.96090   5.02466   5.06146   5.12999
 Alpha virt. eigenvalues --    5.15447   5.23294   5.41092   5.41959   5.46998
 Alpha virt. eigenvalues --    5.47744   5.61225   5.78145   5.87007   5.90728
 Alpha virt. eigenvalues --    5.93978   6.07548   6.39496   6.41803   6.43020
 Alpha virt. eigenvalues --    6.45191   6.50309   6.50900   6.63786   6.64930
 Alpha virt. eigenvalues --    6.67971   6.75824   6.80482   6.86920   6.94248
 Alpha virt. eigenvalues --    6.97464   7.01404   7.01993   7.05640   7.18788
 Alpha virt. eigenvalues --    7.25478   7.31375   7.36768   7.37344   7.48967
 Alpha virt. eigenvalues --    7.53882   7.61037   7.68809  13.50220  14.29596
 Alpha virt. eigenvalues --   16.08819  17.63633
          Condensed to atoms (all electrons):
               1          2          3          4          5          6
     1  C    5.535035   0.079635  -0.154522  -0.133911   0.393388   0.388663
     2  C    0.079635   4.756418   0.359765   0.344066  -0.001828   0.001555
     3  O   -0.154522   0.359765   8.655382  -0.157104   0.020509   0.021071
     4  O   -0.133911   0.344066  -0.157104   8.645433  -0.000943   0.001641
     5  H    0.393388  -0.001828   0.020509  -0.000943   0.444942   0.002216
     6  H    0.388663   0.001555   0.021071   0.001641   0.002216   0.448034
     7  H    0.382850  -0.011245  -0.001746   0.020249  -0.005943  -0.005548
               7
     1  C    0.382850
     2  C   -0.011245
     3  O   -0.001746
     4  O    0.020249
     5  H   -0.005943
     6  H   -0.005548
     7  H    0.429123
 Mulliken charges:
               1
     1  C   -0.491137
     2  C    0.471635
     3  O   -0.743355
     4  O   -0.719430
     5  H    0.147660
     6  H    0.142367
     7  H    0.192259
 Sum of Mulliken charges =  -1.00000
 Mulliken charges with hydrogens summed into heavy atoms:
               1
     1  C   -0.008850
     2  C    0.471635
     3  O   -0.743355
     4  O   -0.719430
 APT charges:
               1
     1  C   -0.045927
     2  C    1.266233
     3  O   -1.033328
     4  O   -1.027246
     5  H   -0.051145
     6  H   -0.050392
     7  H   -0.058194
 Sum of APT charges =  -1.00000
 APT charges with hydrogens summed into heavy atoms:
               1
     1  C   -0.205659
     2  C    1.266233
     3  O   -1.033328
     4  O   -1.027246
 DipInt: DoE/N= T F RetVal/Mat= T F Init=T NMatP=  1 IDeriv=0 Min/MaxMlt=  0  4
 Entering OneElI...
 OneElI was handed  3211039677 working-precision words.
 Multipole integrals L=0 to 4 MinM= 0 MaxM= 0.
 Requested accuracy = 0.1000D-12
 ShPair: Thresh= 1.00D-13 NBox=     0 BxSize= 0.00D+00 RnKept= 6.23D+00
         NSMCal=                 3486 NSMKep=                3481
 PrmmSu-InSpLW:  IPartL=    0 NPrtUS=    1 NPrtUL=    1 DoSpLW=F IThBeg=    0 IThEnd=    0 NThAct=    1.
 PrsmSu:  NPrtUS=   1 ThrOK=F IAlg=1 NPAlg=1 LenDen=           0 ISkipM=0 DoSpLW=F IThBeg=    0 IThEnd=    0.
 Prism:   IPart=     0 DynPar=F LinDyn=F Incr=          34.
 PRISM was handed  3210777452 working-precision words and  3481 shell-pairs
 IPart=  0 NShTot=        3481 NBatch=          68 AvBLen=        51.2
 PrsmSu-ThDecC:  IPartSL=    0    0 NPrtUSL=    1    1 IThBeg=    0 IThEnd=    0 CPU=   -1 GPU=   -1 NThAct=    1.
 PrSmSu:  NxtVal=             35.
 Electronic moments (au):
        -32.00000000          1.43622872         -0.05487145         -0.00094685
       -129.44517985       -106.78143954        -24.88824137         -0.10727382
          0.00639064         -0.00000082       -165.01879782         -5.29581849
         -1.11629287         93.88138055         14.16279363          0.03078124
        -19.58664185         -4.25984133          0.90867116          0.03437214
      -1244.40310233       -788.44010342       -115.00113677         -0.71299558
          0.55410170         20.54277927         -0.20657060         -3.54576544
          0.00534988       -376.43935915       -163.41790455        -88.06210279
          0.24001276          3.23964999        -13.74969584
 Electronic spatial extent (au):  <R**2>=            261.1149
 DipInt: DoE/N= F T RetVal/Mat= T F Init=T NMatP=  1 IDeriv=0 Min/MaxMlt=  0  4
 Nuclear    moments (au):
         31.00000000          0.00000000          0.00000000         -0.00000000
        104.64732738         79.60242298          5.52149333          0.00000000
         -0.00000000         -0.00000000        157.70317446          3.72081299
          1.22071041        -85.81887983        -13.24660007         -0.05541897
         18.08205052          4.85820550         -1.04661228         -0.03909964
        665.19142141        359.39688400         15.27600593          1.49071980
         -0.61275849        -22.32288841          0.21791263          3.89136556
          0.02487566        210.64948273         59.21798678          4.48535029
         -0.27484637         -3.69002700         15.91868984
 Total      moments (au):
         -1.00000000          1.43622872         -0.05487145         -0.00094685
        -24.79785247        -27.17901657        -19.36674804         -0.10727382
          0.00639064         -0.00000082         -7.31562336         -1.57500550
          0.10441754          8.06250072          0.91619356         -0.02463772
         -1.50459133          0.59836417         -0.13794112         -0.00472750
       -579.21168092       -429.04321942        -99.72513084          0.77772422
         -0.05865679         -1.78010914          0.01134203          0.34560013
          0.03022554       -165.78987642       -104.19991777        -83.57675250
         -0.03483361         -0.45037702          2.16899400
 Charge=             -1.0000 electrons
 Dipole moment (field-independent basis, Debye):
    X=              3.6505    Y=             -0.1395    Z=             -0.0024  Tot=              3.6532
 Quadrupole moment (field-independent basis, Debye-Ang):
   XX=            -33.3540   YY=            -36.5567   ZZ=            -26.0489
   XY=             -0.1443   XZ=              0.0086   YZ=             -0.0000
 Traceless Quadrupole moment (field-independent basis, Debye-Ang):
   XX=             -1.3674   YY=             -4.5702   ZZ=              5.9376
   XY=             -0.1443   XZ=              0.0086   YZ=             -0.0000
 Octapole moment (field-independent basis, Debye-Ang**2):
  XXX=             -5.2070  YYY=             -1.1210  ZZZ=              0.0743  XYY=              5.7386
  XXY=              0.6521  XXZ=             -0.0175  XZZ=             -1.0709  YZZ=              0.4259
  YYZ=             -0.0982  XYZ=             -0.0034
 Hexadecapole moment (field-independent basis, Debye-Ang**3):
 XXXX=           -218.1589 YYYY=           -161.5982 ZZZZ=            -37.5613 XXXY=              0.2929
 XXXZ=             -0.0221 YYYX=             -0.6705 YYYZ=              0.0043 ZZZX=              0.1302
 ZZZY=              0.0114 XXYY=            -62.4444 XXZZ=            -39.2467 YYZZ=            -31.4790
 XXYZ=             -0.0131 YYXZ=             -0.1696 ZZXY=              0.8169
 N-N= 1.113982684482D+02 E-N=-7.673420444108D+02  KE= 2.271957357289D+02
 SetAtRh:  ITypeU=  23 NETotI=      -1 ICharg=  0 NETot=      31.
 StAtR1:  I=    1 I1=    1 IA=  6 C=   6.0 OKShel=TTT
                                                  SSP
                                                  222
 StAtR1:  I=    2 I1=    2 IA=  6 C=   6.0 OKShel=TTT
                                                  SSP
                                                  222
 StAtR1:  I=    3 I1=    3 IA=  8 C=   8.0 OKShel=TTT
                                                  SSP
                                                  224
 StAtR1:  I=    4 I1=    4 IA=  8 C=   8.0 OKShel=TTT
                                                  SSP
                                                  224
 StAtR1:  I=    5 I1=    5 IA=  1 C=   1.0 OKShel=T
                                                  S
                                                  1
 StAtR1:  I=    6 I1=    6 IA=  1 C=   1.0 OKShel=T
                                                  S
                                                  1
 StAtR1:  I=    7 I1=    7 IA=  1 C=   1.0 OKShel=T
                                                  S
                                                  1
          I=    1 IA=  6 I1=    1 NAtG=23 NE=   6.000 C=   6.000 Err= 1.75D-11
          I=    2 IA=  6 I1=    2 NAtG=23 NE=   6.000 C=   6.000 Err= 1.75D-11
          I=    3 IA=  8 I1=    3 NAtG=23 NE=   8.000 C=   8.000 Err=-3.68D-11
          I=    4 IA=  8 I1=    4 NAtG=23 NE=   8.000 C=   8.000 Err=-3.68D-11
          I=    5 IA=  1 I1=    5 NAtG=20 NE=   1.000 C=   1.000 Err= 2.80D-12
          I=    6 IA=  1 I1=    6 NAtG=20 NE=   1.000 C=   1.000 Err= 2.80D-12
          I=    7 IA=  1 I1=    7 NAtG=20 NE=   1.000 C=   1.000 Err= 2.80D-12
 Pruned ( 225, 974) grid will be used in numerical quadrature.
 IPart=  0 IRanGd=          0 ScrnBf=T ScrnGd=T RCrit=4.00D+00 DoMicB=T.
 CutRad = 1000.00    CtRdIn =    0.00    XCrit =  15.00   ICut = 0
 Pruned ( 150, 974) grid will be used in numerical quadrature.
 IPart=  0 Atom number   1 atomic number  6 has       62620 grid points.
 IPart=  0 Atom   1 batch    1 overlaps    7 atoms,    81 shells and     7 DB shells.   NGrid=      8342
 Symmetry reduced   194 angular points to   194 for atom    1.
 IPart=  0 Atom   1 batch    2 overlaps    7 atoms,    81 shells and     7 DB shells.   NGrid=      5738
 Symmetry reduced   302 angular points to   302 for atom    1.
 IPart=  0 Atom   1 batch    3 overlaps    7 atoms,    81 shells and     7 DB shells.   NGrid=      6490
 Symmetry reduced   590 angular points to   590 for atom    1.
 IPart=  0 Atom   1 batch    4 overlaps    7 atoms,    81 shells and     7 DB shells.   NGrid=      1948
 Symmetry reduced   974 angular points to   974 for atom    1.
 IPart=  0 Atom   1 batch    5 overlaps    7 atoms,    81 shells and     7 DB shells.   NGrid=      1948
 IPart=  0 Atom   1 batch    6 overlaps    7 atoms,    81 shells and     7 DB shells.   NGrid=      1948
 IPart=  0 Atom   1 batch    7 overlaps    7 atoms,    81 shells and     7 DB shells.   NGrid=      1948
 IPart=  0 Atom   1 batch    8 overlaps    7 atoms,    81 shells and     7 DB shells.   NGrid=      1948
 IPart=  0 Atom   1 batch    9 overlaps    7 atoms,    83 shells and     7 DB shells.   NGrid=      1948
 IPart=  0 Atom   1 batch   10 overlaps    7 atoms,    83 shells and     7 DB shells.   NGrid=      1948
 IPart=  0 Atom   1 batch   11 overlaps    7 atoms,    83 shells and     7 DB shells.   NGrid=      1948
 IPart=  0 Atom   1 batch   12 overlaps    7 atoms,    83 shells and     7 DB shells.   NGrid=      1948
 IPart=  0 Atom   1 batch   13 overlaps    7 atoms,    83 shells and     7 DB shells.   NGrid=      1948
 IPart=  0 Atom   1 batch   14 overlaps    7 atoms,    83 shells and     7 DB shells.   NGrid=      1948
 IPart=  0 Atom   1 batch   15 overlaps    7 atoms,    82 shells and     7 DB shells.   NGrid=      1948
 IPart=  0 Atom   1 batch   16 overlaps    7 atoms,    82 shells and     7 DB shells.   NGrid=       974
 IPart=  0 Atom   1 batch   17 overlaps    7 atoms,    82 shells and     7 DB shells.   NGrid=      1180
 Symmetry reduced   590 angular points to   590 for atom    1.
 IPart=  0 Atom   1 batch   18 overlaps    7 atoms,    82 shells and     7 DB shells.   NGrid=      1180
 IPart=  0 Atom   1 batch   19 overlaps    7 atoms,    82 shells and     7 DB shells.   NGrid=      1180
 IPart=  0 Atom   1 batch   20 overlaps    7 atoms,    80 shells and     7 DB shells.   NGrid=      1180
 IPart=  0 Atom   1 batch   21 overlaps    7 atoms,    76 shells and     7 DB shells.   NGrid=      1180
 IPart=  0 Atom   1 batch   22 overlaps    7 atoms,    69 shells and     7 DB shells.   NGrid=      1180
 IPart=  0 Atom   1 batch   23 overlaps    7 atoms,    58 shells and     7 DB shells.   NGrid=      1180
 IPart=  0 Atom   1 batch   24 overlaps    7 atoms,    52 shells and     7 DB shells.   NGrid=      1180
 IPart=  0 Atom   1 batch   25 overlaps    7 atoms,    44 shells and     7 DB shells.   NGrid=      1180
 IPart=  0 Atom   1 batch   26 overlaps    7 atoms,    33 shells and     7 DB shells.   NGrid=      1180
 IPart=  0 Atom   1 batch   27 overlaps    7 atoms,    26 shells and     7 DB shells.   NGrid=      1180
 IPart=  0 Atom   1 batch   28 overlaps    7 atoms,    19 shells and     1 DB shells.   NGrid=      1180
 IPart=  0 Atom   1 batch   29 overlaps    7 atoms,    11 shells and     0 DB shells.   NGrid=      1180
 IPart=  0 Atom   1 batch   30 overlaps    7 atoms,     8 shells and     0 DB shells.   NGrid=      1180
 IPart=  0 Atom   1 batch   31 overlaps    7 atoms,     3 shells and     0 DB shells.   NGrid=      1180
 Pruned ( 150, 974) grid will be used in numerical quadrature.
 IPart=  0 Atom number   2 atomic number  6 has       63210 grid points.
 IPart=  0 Atom   2 batch    1 overlaps    7 atoms,    83 shells and     7 DB shells.   NGrid=      8342
 Symmetry reduced   194 angular points to   194 for atom    2.
 IPart=  0 Atom   2 batch    2 overlaps    7 atoms,    83 shells and     7 DB shells.   NGrid=      5738
 Symmetry reduced   302 angular points to   302 for atom    2.
 IPart=  0 Atom   2 batch    3 overlaps    7 atoms,    83 shells and     7 DB shells.   NGrid=      6490
 Symmetry reduced   590 angular points to   590 for atom    2.
 IPart=  0 Atom   2 batch    4 overlaps    7 atoms,    83 shells and     7 DB shells.   NGrid=      1948
 Symmetry reduced   974 angular points to   974 for atom    2.
 IPart=  0 Atom   2 batch    5 overlaps    7 atoms,    83 shells and     7 DB shells.   NGrid=      1948
 IPart=  0 Atom   2 batch    6 overlaps    7 atoms,    83 shells and     7 DB shells.   NGrid=      1948
 IPart=  0 Atom   2 batch    7 overlaps    7 atoms,    83 shells and     7 DB shells.   NGrid=      1948
 IPart=  0 Atom   2 batch    8 overlaps    7 atoms,    83 shells and     7 DB shells.   NGrid=      1948
 IPart=  0 Atom   2 batch    9 overlaps    7 atoms,    83 shells and     7 DB shells.   NGrid=      1948
 IPart=  0 Atom   2 batch   10 overlaps    7 atoms,    83 shells and     7 DB shells.   NGrid=      1948
 IPart=  0 Atom   2 batch   11 overlaps    7 atoms,    83 shells and     7 DB shells.   NGrid=      1948
 IPart=  0 Atom   2 batch   12 overlaps    7 atoms,    83 shells and     7 DB shells.   NGrid=      1948
 IPart=  0 Atom   2 batch   13 overlaps    7 atoms,    83 shells and     7 DB shells.   NGrid=      1948
 IPart=  0 Atom   2 batch   14 overlaps    7 atoms,    83 shells and     7 DB shells.   NGrid=      1948
 IPart=  0 Atom   2 batch   15 overlaps    7 atoms,    82 shells and     7 DB shells.   NGrid=      1948
 IPart=  0 Atom   2 batch   16 overlaps    7 atoms,    82 shells and     7 DB shells.   NGrid=       974
 IPart=  0 Atom   2 batch   17 overlaps    7 atoms,    82 shells and     7 DB shells.   NGrid=      1180
 Symmetry reduced   590 angular points to   590 for atom    2.
 IPart=  0 Atom   2 batch   18 overlaps    7 atoms,    80 shells and     7 DB shells.   NGrid=      1180
 IPart=  0 Atom   2 batch   19 overlaps    7 atoms,    80 shells and     7 DB shells.   NGrid=      1180
 IPart=  0 Atom   2 batch   20 overlaps    7 atoms,    78 shells and     7 DB shells.   NGrid=      1180
 IPart=  0 Atom   2 batch   21 overlaps    7 atoms,    70 shells and     7 DB shells.   NGrid=      1180
 IPart=  0 Atom   2 batch   22 overlaps    7 atoms,    67 shells and     7 DB shells.   NGrid=      1180
 IPart=  0 Atom   2 batch   23 overlaps    7 atoms,    65 shells and     7 DB shells.   NGrid=      1180
 IPart=  0 Atom   2 batch   24 overlaps    7 atoms,    46 shells and     7 DB shells.   NGrid=      1180
 IPart=  0 Atom   2 batch   25 overlaps    7 atoms,    43 shells and     7 DB shells.   NGrid=      1180
 IPart=  0 Atom   2 batch   26 overlaps    7 atoms,    36 shells and     7 DB shells.   NGrid=      1180
 IPart=  0 Atom   2 batch   27 overlaps    7 atoms,    24 shells and     5 DB shells.   NGrid=      1180
 IPart=  0 Atom   2 batch   28 overlaps    7 atoms,    19 shells and     4 DB shells.   NGrid=      1180
 IPart=  0 Atom   2 batch   29 overlaps    7 atoms,     9 shells and     0 DB shells.   NGrid=      1180
 IPart=  0 Atom   2 batch   30 overlaps    7 atoms,     6 shells and     0 DB shells.   NGrid=      1180
 IPart=  0 Atom   2 batch   31 overlaps    7 atoms,     3 shells and     0 DB shells.   NGrid=      1180
 IPart=  0 Atom   2 batch   32 overlaps    7 atoms,     0 shells and     0 DB shells.   NGrid=       590
 Pruned ( 150, 974) grid will be used in numerical quadrature.
 IPart=  0 Atom number   3 atomic number  8 has       64980 grid points.
 IPart=  0 Atom   3 batch    1 overlaps    7 atoms,    79 shells and     7 DB shells.   NGrid=      8342
 Symmetry reduced   194 angular points to   194 for atom    3.
 IPart=  0 Atom   3 batch    2 overlaps    7 atoms,    80 shells and     7 DB shells.   NGrid=      5738
 Symmetry reduced   302 angular points to   302 for atom    3.
 IPart=  0 Atom   3 batch    3 overlaps    7 atoms,    81 shells and     7 DB shells.   NGrid=      6490
 Symmetry reduced   590 angular points to   590 for atom    3.
 IPart=  0 Atom   3 batch    4 overlaps    7 atoms,    81 shells and     7 DB shells.   NGrid=      1948
 Symmetry reduced   974 angular points to   974 for atom    3.
 IPart=  0 Atom   3 batch    5 overlaps    7 atoms,    81 shells and     7 DB shells.   NGrid=      1948
 IPart=  0 Atom   3 batch    6 overlaps    7 atoms,    82 shells and     7 DB shells.   NGrid=      1948
 IPart=  0 Atom   3 batch    7 overlaps    7 atoms,    82 shells and     7 DB shells.   NGrid=      1948
 IPart=  0 Atom   3 batch    8 overlaps    7 atoms,    82 shells and     7 DB shells.   NGrid=      1948
 IPart=  0 Atom   3 batch    9 overlaps    7 atoms,    82 shells and     7 DB shells.   NGrid=      1948
 IPart=  0 Atom   3 batch   10 overlaps    7 atoms,    82 shells and     7 DB shells.   NGrid=      1948
 IPart=  0 Atom   3 batch   11 overlaps    7 atoms,    83 shells and     7 DB shells.   NGrid=      1948
 IPart=  0 Atom   3 batch   12 overlaps    7 atoms,    83 shells and     7 DB shells.   NGrid=      1948
 IPart=  0 Atom   3 batch   13 overlaps    7 atoms,    83 shells and     7 DB shells.   NGrid=      1948
 IPart=  0 Atom   3 batch   14 overlaps    7 atoms,    83 shells and     7 DB shells.   NGrid=      1948
 IPart=  0 Atom   3 batch   15 overlaps    7 atoms,    82 shells and     7 DB shells.   NGrid=      1948
 IPart=  0 Atom   3 batch   16 overlaps    7 atoms,    82 shells and     7 DB shells.   NGrid=       974
 IPart=  0 Atom   3 batch   17 overlaps    7 atoms,    82 shells and     7 DB shells.   NGrid=      1180
 Symmetry reduced   590 angular points to   590 for atom    3.
 IPart=  0 Atom   3 batch   18 overlaps    7 atoms,    82 shells and     7 DB shells.   NGrid=      1180
 IPart=  0 Atom   3 batch   19 overlaps    7 atoms,    82 shells and     7 DB shells.   NGrid=      1180
 IPart=  0 Atom   3 batch   20 overlaps    7 atoms,    80 shells and     7 DB shells.   NGrid=      1180
 IPart=  0 Atom   3 batch   21 overlaps    7 atoms,    79 shells and     7 DB shells.   NGrid=      1180
 IPart=  0 Atom   3 batch   22 overlaps    7 atoms,    77 shells and     7 DB shells.   NGrid=      1180
 IPart=  0 Atom   3 batch   23 overlaps    7 atoms,    77 shells and     7 DB shells.   NGrid=      1180
 IPart=  0 Atom   3 batch   24 overlaps    7 atoms,    74 shells and     7 DB shells.   NGrid=      1180
 IPart=  0 Atom   3 batch   25 overlaps    7 atoms,    67 shells and     7 DB shells.   NGrid=      1180
 IPart=  0 Atom   3 batch   26 overlaps    7 atoms,    62 shells and     7 DB shells.   NGrid=      1180
 IPart=  0 Atom   3 batch   27 overlaps    7 atoms,    49 shells and     7 DB shells.   NGrid=      1180
 IPart=  0 Atom   3 batch   28 overlaps    7 atoms,    40 shells and     6 DB shells.   NGrid=      1180
 IPart=  0 Atom   3 batch   29 overlaps    7 atoms,    29 shells and     6 DB shells.   NGrid=      1180
 IPart=  0 Atom   3 batch   30 overlaps    7 atoms,    21 shells and     5 DB shells.   NGrid=      1180
 IPart=  0 Atom   3 batch   31 overlaps    7 atoms,    10 shells and     0 DB shells.   NGrid=      1180
 IPart=  0 Atom   3 batch   32 overlaps    7 atoms,     6 shells and     0 DB shells.   NGrid=      1180
 IPart=  0 Atom   3 batch   33 overlaps    7 atoms,     3 shells and     0 DB shells.   NGrid=      1180
 Pruned ( 150, 974) grid will be used in numerical quadrature.
 IPart=  0 Atom number   4 atomic number  8 has       64980 grid points.
 IPart=  0 Atom   4 batch    1 overlaps    7 atoms,    79 shells and     7 DB shells.   NGrid=      8342
 Symmetry reduced   194 angular points to   194 for atom    4.
 IPart=  0 Atom   4 batch    2 overlaps    7 atoms,    81 shells and     7 DB shells.   NGrid=      5738
 Symmetry reduced   302 angular points to   302 for atom    4.
 IPart=  0 Atom   4 batch    3 overlaps    7 atoms,    81 shells and     7 DB shells.   NGrid=      6490
 Symmetry reduced   590 angular points to   590 for atom    4.
 IPart=  0 Atom   4 batch    4 overlaps    7 atoms,    81 shells and     7 DB shells.   NGrid=      1948
 Symmetry reduced   974 angular points to   974 for atom    4.
 IPart=  0 Atom   4 batch    5 overlaps    7 atoms,    81 shells and     7 DB shells.   NGrid=      1948
 IPart=  0 Atom   4 batch    6 overlaps    7 atoms,    82 shells and     7 DB shells.   NGrid=      1948
 IPart=  0 Atom   4 batch    7 overlaps    7 atoms,    82 shells and     7 DB shells.   NGrid=      1948
 IPart=  0 Atom   4 batch    8 overlaps    7 atoms,    82 shells and     7 DB shells.   NGrid=      1948
 IPart=  0 Atom   4 batch    9 overlaps    7 atoms,    82 shells and     7 DB shells.   NGrid=      1948
 IPart=  0 Atom   4 batch   10 overlaps    7 atoms,    82 shells and     7 DB shells.   NGrid=      1948
 IPart=  0 Atom   4 batch   11 overlaps    7 atoms,    83 shells and     7 DB shells.   NGrid=      1948
 IPart=  0 Atom   4 batch   12 overlaps    7 atoms,    83 shells and     7 DB shells.   NGrid=      1948
 IPart=  0 Atom   4 batch   13 overlaps    7 atoms,    83 shells and     7 DB shells.   NGrid=      1948
 IPart=  0 Atom   4 batch   14 overlaps    7 atoms,    83 shells and     7 DB shells.   NGrid=      1948
 IPart=  0 Atom   4 batch   15 overlaps    7 atoms,    82 shells and     7 DB shells.   NGrid=      1948
 IPart=  0 Atom   4 batch   16 overlaps    7 atoms,    82 shells and     7 DB shells.   NGrid=       974
 IPart=  0 Atom   4 batch   17 overlaps    7 atoms,    82 shells and     7 DB shells.   NGrid=      1180
 Symmetry reduced   590 angular points to   590 for atom    4.
 IPart=  0 Atom   4 batch   18 overlaps    7 atoms,    82 shells and     7 DB shells.   NGrid=      1180
 IPart=  0 Atom   4 batch   19 overlaps    7 atoms,    82 shells and     7 DB shells.   NGrid=      1180
 IPart=  0 Atom   4 batch   20 overlaps    7 atoms,    80 shells and     7 DB shells.   NGrid=      1180
 IPart=  0 Atom   4 batch   21 overlaps    7 atoms,    79 shells and     7 DB shells.   NGrid=      1180
 IPart=  0 Atom   4 batch   22 overlaps    7 atoms,    77 shells and     7 DB shells.   NGrid=      1180
 IPart=  0 Atom   4 batch   23 overlaps    7 atoms,    77 shells and     7 DB shells.   NGrid=      1180
 IPart=  0 Atom   4 batch   24 overlaps    7 atoms,    74 shells and     7 DB shells.   NGrid=      1180
 IPart=  0 Atom   4 batch   25 overlaps    7 atoms,    67 shells and     7 DB shells.   NGrid=      1180
 IPart=  0 Atom   4 batch   26 overlaps    7 atoms,    61 shells and     7 DB shells.   NGrid=      1180
 IPart=  0 Atom   4 batch   27 overlaps    7 atoms,    50 shells and     7 DB shells.   NGrid=      1180
 IPart=  0 Atom   4 batch   28 overlaps    7 atoms,    40 shells and     6 DB shells.   NGrid=      1180
 IPart=  0 Atom   4 batch   29 overlaps    7 atoms,    29 shells and     6 DB shells.   NGrid=      1180
 IPart=  0 Atom   4 batch   30 overlaps    7 atoms,    21 shells and     5 DB shells.   NGrid=      1180
 IPart=  0 Atom   4 batch   31 overlaps    7 atoms,    10 shells and     0 DB shells.   NGrid=      1180
 IPart=  0 Atom   4 batch   32 overlaps    7 atoms,     6 shells and     0 DB shells.   NGrid=      1180
 IPart=  0 Atom   4 batch   33 overlaps    7 atoms,     3 shells and     0 DB shells.   NGrid=      1180
 Pruned ( 150, 974) grid will be used in numerical quadrature.
 IPart=  0 Atom number   5 atomic number  1 has       63812 grid points.
 IPart=  0 Atom   5 batch    1 overlaps    7 atoms,    75 shells and     7 DB shells.   NGrid=      9700
 Symmetry reduced   194 angular points to   194 for atom    5.
 IPart=  0 Atom   5 batch    2 overlaps    7 atoms,    75 shells and     7 DB shells.   NGrid=      3624
 Symmetry reduced   302 angular points to   302 for atom    5.
 IPart=  0 Atom   5 batch    3 overlaps    7 atoms,    78 shells and     7 DB shells.   NGrid=      7670
 Symmetry reduced   590 angular points to   590 for atom    5.
 IPart=  0 Atom   5 batch    4 overlaps    7 atoms,    78 shells and     7 DB shells.   NGrid=      1948
 Symmetry reduced   974 angular points to   974 for atom    5.
 IPart=  0 Atom   5 batch    5 overlaps    7 atoms,    79 shells and     7 DB shells.   NGrid=      1948
 IPart=  0 Atom   5 batch    6 overlaps    7 atoms,    79 shells and     7 DB shells.   NGrid=      1948
 IPart=  0 Atom   5 batch    7 overlaps    7 atoms,    80 shells and     7 DB shells.   NGrid=      1948
 IPart=  0 Atom   5 batch    8 overlaps    7 atoms,    81 shells and     7 DB shells.   NGrid=      1948
 IPart=  0 Atom   5 batch    9 overlaps    7 atoms,    81 shells and     7 DB shells.   NGrid=      1948
 IPart=  0 Atom   5 batch   10 overlaps    7 atoms,    81 shells and     7 DB shells.   NGrid=      1948
 IPart=  0 Atom   5 batch   11 overlaps    7 atoms,    81 shells and     7 DB shells.   NGrid=      1948
 IPart=  0 Atom   5 batch   12 overlaps    7 atoms,    82 shells and     7 DB shells.   NGrid=      1948
 IPart=  0 Atom   5 batch   13 overlaps    7 atoms,    82 shells and     7 DB shells.   NGrid=      1948
 IPart=  0 Atom   5 batch   14 overlaps    7 atoms,    82 shells and     7 DB shells.   NGrid=      1948
 IPart=  0 Atom   5 batch   15 overlaps    7 atoms,    83 shells and     7 DB shells.   NGrid=      1948
 IPart=  0 Atom   5 batch   16 overlaps    7 atoms,    83 shells and     7 DB shells.   NGrid=      1948
 IPart=  0 Atom   5 batch   17 overlaps    7 atoms,    83 shells and     7 DB shells.   NGrid=       974
 IPart=  0 Atom   5 batch   18 overlaps    7 atoms,    83 shells and     7 DB shells.   NGrid=      1180
 Symmetry reduced   590 angular points to   590 for atom    5.
 IPart=  0 Atom   5 batch   19 overlaps    7 atoms,    83 shells and     7 DB shells.   NGrid=      1180
 IPart=  0 Atom   5 batch   20 overlaps    7 atoms,    80 shells and     7 DB shells.   NGrid=      1180
 IPart=  0 Atom   5 batch   21 overlaps    7 atoms,    79 shells and     7 DB shells.   NGrid=      1180
 IPart=  0 Atom   5 batch   22 overlaps    7 atoms,    77 shells and     7 DB shells.   NGrid=      1180
 IPart=  0 Atom   5 batch   23 overlaps    7 atoms,    73 shells and     7 DB shells.   NGrid=      1180
 IPart=  0 Atom   5 batch   24 overlaps    7 atoms,    61 shells and     7 DB shells.   NGrid=      1180
 IPart=  0 Atom   5 batch   25 overlaps    7 atoms,    53 shells and     7 DB shells.   NGrid=      1180
 IPart=  0 Atom   5 batch   26 overlaps    7 atoms,    41 shells and     7 DB shells.   NGrid=      1180
 IPart=  0 Atom   5 batch   27 overlaps    7 atoms,    30 shells and     7 DB shells.   NGrid=      1180
 IPart=  0 Atom   5 batch   28 overlaps    7 atoms,    22 shells and     5 DB shells.   NGrid=      1180
 IPart=  0 Atom   5 batch   29 overlaps    7 atoms,    12 shells and     0 DB shells.   NGrid=      1180
 IPart=  0 Atom   5 batch   30 overlaps    7 atoms,     9 shells and     0 DB shells.   NGrid=      1180
 IPart=  0 Atom   5 batch   31 overlaps    7 atoms,     4 shells and     0 DB shells.   NGrid=      1180
 Pruned ( 150, 974) grid will be used in numerical quadrature.
 IPart=  0 Atom number   6 atomic number  1 has       63812 grid points.
 IPart=  0 Atom   6 batch    1 overlaps    7 atoms,    74 shells and     7 DB shells.   NGrid=      9700
 Symmetry reduced   194 angular points to   194 for atom    6.
 IPart=  0 Atom   6 batch    2 overlaps    7 atoms,    75 shells and     7 DB shells.   NGrid=      3624
 Symmetry reduced   302 angular points to   302 for atom    6.
 IPart=  0 Atom   6 batch    3 overlaps    7 atoms,    78 shells and     7 DB shells.   NGrid=      7670
 Symmetry reduced   590 angular points to   590 for atom    6.
 IPart=  0 Atom   6 batch    4 overlaps    7 atoms,    79 shells and     7 DB shells.   NGrid=      1948
 Symmetry reduced   974 angular points to   974 for atom    6.
 IPart=  0 Atom   6 batch    5 overlaps    7 atoms,    79 shells and     7 DB shells.   NGrid=      1948
 IPart=  0 Atom   6 batch    6 overlaps    7 atoms,    79 shells and     7 DB shells.   NGrid=      1948
 IPart=  0 Atom   6 batch    7 overlaps    7 atoms,    81 shells and     7 DB shells.   NGrid=      1948
 IPart=  0 Atom   6 batch    8 overlaps    7 atoms,    81 shells and     7 DB shells.   NGrid=      1948
 IPart=  0 Atom   6 batch    9 overlaps    7 atoms,    81 shells and     7 DB shells.   NGrid=      1948
 IPart=  0 Atom   6 batch   10 overlaps    7 atoms,    81 shells and     7 DB shells.   NGrid=      1948
 IPart=  0 Atom   6 batch   11 overlaps    7 atoms,    81 shells and     7 DB shells.   NGrid=      1948
 IPart=  0 Atom   6 batch   12 overlaps    7 atoms,    82 shells and     7 DB shells.   NGrid=      1948
 IPart=  0 Atom   6 batch   13 overlaps    7 atoms,    82 shells and     7 DB shells.   NGrid=      1948
 IPart=  0 Atom   6 batch   14 overlaps    7 atoms,    83 shells and     7 DB shells.   NGrid=      1948
 IPart=  0 Atom   6 batch   15 overlaps    7 atoms,    83 shells and     7 DB shells.   NGrid=      1948
 IPart=  0 Atom   6 batch   16 overlaps    7 atoms,    83 shells and     7 DB shells.   NGrid=      1948
 IPart=  0 Atom   6 batch   17 overlaps    7 atoms,    83 shells and     7 DB shells.   NGrid=       974
 IPart=  0 Atom   6 batch   18 overlaps    7 atoms,    83 shells and     7 DB shells.   NGrid=      1180
 Symmetry reduced   590 angular points to   590 for atom    6.
 IPart=  0 Atom   6 batch   19 overlaps    7 atoms,    83 shells and     7 DB shells.   NGrid=      1180
 IPart=  0 Atom   6 batch   20 overlaps    7 atoms,    80 shells and     7 DB shells.   NGrid=      1180
 IPart=  0 Atom   6 batch   21 overlaps    7 atoms,    79 shells and     7 DB shells.   NGrid=      1180
 IPart=  0 Atom   6 batch   22 overlaps    7 atoms,    78 shells and     7 DB shells.   NGrid=      1180
 IPart=  0 Atom   6 batch   23 overlaps    7 atoms,    73 shells and     7 DB shells.   NGrid=      1180
 IPart=  0 Atom   6 batch   24 overlaps    7 atoms,    61 shells and     7 DB shells.   NGrid=      1180
 IPart=  0 Atom   6 batch   25 overlaps    7 atoms,    53 shells and     7 DB shells.   NGrid=      1180
 IPart=  0 Atom   6 batch   26 overlaps    7 atoms,    41 shells and     7 DB shells.   NGrid=      1180
 IPart=  0 Atom   6 batch   27 overlaps    7 atoms,    30 shells and     7 DB shells.   NGrid=      1180
 IPart=  0 Atom   6 batch   28 overlaps    7 atoms,    21 shells and     5 DB shells.   NGrid=      1180
 IPart=  0 Atom   6 batch   29 overlaps    7 atoms,    12 shells and     0 DB shells.   NGrid=      1180
 IPart=  0 Atom   6 batch   30 overlaps    7 atoms,     9 shells and     0 DB shells.   NGrid=      1180
 IPart=  0 Atom   6 batch   31 overlaps    7 atoms,     4 shells and     0 DB shells.   NGrid=      1180
 Pruned ( 150, 974) grid will be used in numerical quadrature.
 IPart=  0 Atom number   7 atomic number  1 has       63812 grid points.
 IPart=  0 Atom   7 batch    1 overlaps    7 atoms,    74 shells and     7 DB shells.   NGrid=      9700
 Symmetry reduced   194 angular points to   194 for atom    7.
 IPart=  0 Atom   7 batch    2 overlaps    7 atoms,    76 shells and     7 DB shells.   NGrid=      3624
 Symmetry reduced   302 angular points to   302 for atom    7.
 IPart=  0 Atom   7 batch    3 overlaps    7 atoms,    78 shells and     7 DB shells.   NGrid=      7670
 Symmetry reduced   590 angular points to   590 for atom    7.
 IPart=  0 Atom   7 batch    4 overlaps    7 atoms,    78 shells and     7 DB shells.   NGrid=      1948
 Symmetry reduced   974 angular points to   974 for atom    7.
 IPart=  0 Atom   7 batch    5 overlaps    7 atoms,    78 shells and     7 DB shells.   NGrid=      1948
 IPart=  0 Atom   7 batch    6 overlaps    7 atoms,    78 shells and     7 DB shells.   NGrid=      1948
 IPart=  0 Atom   7 batch    7 overlaps    7 atoms,    79 shells and     7 DB shells.   NGrid=      1948
 IPart=  0 Atom   7 batch    8 overlaps    7 atoms,    79 shells and     7 DB shells.   NGrid=      1948
 IPart=  0 Atom   7 batch    9 overlaps    7 atoms,    80 shells and     7 DB shells.   NGrid=      1948
 IPart=  0 Atom   7 batch   10 overlaps    7 atoms,    81 shells and     7 DB shells.   NGrid=      1948
 IPart=  0 Atom   7 batch   11 overlaps    7 atoms,    82 shells and     7 DB shells.   NGrid=      1948
 IPart=  0 Atom   7 batch   12 overlaps    7 atoms,    82 shells and     7 DB shells.   NGrid=      1948
 IPart=  0 Atom   7 batch   13 overlaps    7 atoms,    82 shells and     7 DB shells.   NGrid=      1948
 IPart=  0 Atom   7 batch   14 overlaps    7 atoms,    82 shells and     7 DB shells.   NGrid=      1948
 IPart=  0 Atom   7 batch   15 overlaps    7 atoms,    83 shells and     7 DB shells.   NGrid=      1948
 IPart=  0 Atom   7 batch   16 overlaps    7 atoms,    83 shells and     7 DB shells.   NGrid=      1948
 IPart=  0 Atom   7 batch   17 overlaps    7 atoms,    83 shells and     7 DB shells.   NGrid=       974
 IPart=  0 Atom   7 batch   18 overlaps    7 atoms,    83 shells and     7 DB shells.   NGrid=      1180
 Symmetry reduced   590 angular points to   590 for atom    7.
 IPart=  0 Atom   7 batch   19 overlaps    7 atoms,    83 shells and     7 DB shells.   NGrid=      1180
 IPart=  0 Atom   7 batch   20 overlaps    7 atoms,    80 shells and     7 DB shells.   NGrid=      1180
 IPart=  0 Atom   7 batch   21 overlaps    7 atoms,    79 shells and     7 DB shells.   NGrid=      1180
 IPart=  0 Atom   7 batch   22 overlaps    7 atoms,    77 shells and     7 DB shells.   NGrid=      1180
 IPart=  0 Atom   7 batch   23 overlaps    7 atoms,    74 shells and     7 DB shells.   NGrid=      1180
 IPart=  0 Atom   7 batch   24 overlaps    7 atoms,    61 shells and     7 DB shells.   NGrid=      1180
 IPart=  0 Atom   7 batch   25 overlaps    7 atoms,    54 shells and     7 DB shells.   NGrid=      1180
 IPart=  0 Atom   7 batch   26 overlaps    7 atoms,    41 shells and     7 DB shells.   NGrid=      1180
 IPart=  0 Atom   7 batch   27 overlaps    7 atoms,    30 shells and     7 DB shells.   NGrid=      1180
 IPart=  0 Atom   7 batch   28 overlaps    7 atoms,    22 shells and     5 DB shells.   NGrid=      1180
 IPart=  0 Atom   7 batch   29 overlaps    7 atoms,    12 shells and     0 DB shells.   NGrid=      1180
 IPart=  0 Atom   7 batch   30 overlaps    7 atoms,     9 shells and     0 DB shells.   NGrid=      1180
 IPart=  0 Atom   7 batch   31 overlaps    7 atoms,     4 shells and     0 DB shells.   NGrid=      1180
 There are a total of      446636 grid points.
 ElSum from          density=       31.9999999731
 ElSum from atomic densities=       31.0000000563

 Hirshfeld populations at iteration   1 (CX, CA, CB, DipXYZ):
               1          2          3          4          5          6
     1  C    0.000000   3.068325   3.068325  -0.036868  -0.002964  -0.000731
     2  C    0.000000   2.954192   2.954192   0.137225  -0.006846  -0.001044
     3  O    0.000032   4.237859   4.237859   0.145597  -0.266647  -0.000911
     4  O    0.000031   4.235895   4.235895   0.167503   0.249128  -0.000889
     5  H    0.000018   0.500442   0.500442   0.027357   0.054470  -0.094105
     6  H    0.000017   0.499877   0.499877   0.024437   0.042838   0.102495
     7  H    0.000023   0.503411   0.503411   0.032717  -0.097207  -0.007710
       Tot   0.000120  16.000000  16.000000   0.497967  -0.027228  -0.002895

 Dip from Atomic Chgs              0.938261  -0.027643   0.001948
         Total Dipole              1.436229  -0.054872  -0.000947

 Hirshfeld charges, spin densities, dipoles, and CM5 charges using IRadAn=      7:
              Q-H        S-H        Dx         Dy         Dz        Q-CM5   
     1  C   -0.136649   0.000000  -0.036868  -0.002964  -0.000731  -0.275156
     2  C    0.091616   0.000000   0.137225  -0.006846  -0.001044   0.146648
     3  O   -0.475719   0.000000   0.145597  -0.266647  -0.000911  -0.515150
     4  O   -0.471790   0.000000   0.167503   0.249128  -0.000889  -0.511004
     5  H   -0.000883   0.000000   0.027357   0.054470  -0.094105   0.052957
     6  H    0.000247   0.000000   0.024437   0.042838   0.102495   0.053902
     7  H   -0.006822   0.000000   0.032717  -0.097207  -0.007710   0.047804
       Tot  -1.000000   0.000000   0.497967  -0.027228  -0.002895  -1.000000
 Hirshfeld charges with hydrogens summed into heavy atoms:
              Q-H       Q-CM5   
     1  C   -0.144108  -0.120494
     2  C    0.091616   0.146648
     3  O   -0.475719  -0.515150
     4  O   -0.471790  -0.511004
 
 EQQ=  0.00000000000     EQD=  0.00000000000     EDD= 0.172982998643E-02
 EQQ+QD+DD= 0.172982998643E-02
 
  Exact polarizability:  58.186   0.366  52.111   0.081   0.002  35.667
 Approx polarizability:  68.157   1.142  74.457   0.113   0.005  48.070
 Entering OneElI...
 OneElI was handed  3211105918 working-precision words.
 Calculate electrostatic properties
    NBasis =   253  MinDer = 0  MaxDer = 0
    NGrid  =     7  NMatD  =   1
 Requested accuracy = 0.1000D-12
 ShPair: Thresh= 1.00D-13 NBox=     0 BxSize= 0.00D+00 RnKept= 6.23D+00
         NSMCal=                 3486 NSMKep=                3453
 PrmmSu-InSpLW:  IPartL=    0 NPrtUS=    1 NPrtUL=    1 DoSpLW=F IThBeg=    0 IThEnd=    0 NThAct=    1.
 PrsmSu:  NPrtUS=   1 ThrOK=F IAlg=1 NPAlg=1 LenDen=           0 ISkipM=0 DoSpLW=F IThBeg=    0 IThEnd=    0.
 Prism:   IPart=     0 DynPar=F LinDyn=F Incr=         241.
 PRISM was handed  3210849239 working-precision words and  3453 shell-pairs
 IPart=  0 NShTot=       24171 NBatch=        3453 AvBLen=         7.0
 PrsmSu-ThDecC:  IPartSL=    0    0 NPrtUSL=    1    1 IThBeg=    0 IThEnd=    0 CPU=   -1 GPU=   -1 NThAct=    1.
 PrSmSu:  NxtVal=            242.
 --------------------------------------------------------
       Center         ----      EFG at Nuclei      ----
                      3XX-RR        3YY-RR        3ZZ-RR
 --------------------------------------------------------
     1   Atom        0.018003      0.007635     -0.025638
     2   Atom        0.143813      0.269415     -0.413228
     3   Atom        1.018000     -0.614043     -0.403956
     4   Atom        0.917537     -0.438102     -0.479435
     5   Atom        0.091261      0.021591     -0.112853
     6   Atom        0.094863      0.069137     -0.164001
     7   Atom        0.095853     -0.238860      0.143007
 --------------------------------------------------------
                        XY            XZ            YZ
 --------------------------------------------------------
     1   Atom        0.011067      0.002631     -0.000460
     2   Atom        0.004655     -0.001480      0.000036
     3   Atom        0.829350     -0.010789     -0.005788
     4   Atom       -0.978809     -0.010595      0.006450
     5   Atom       -0.081867      0.119803      0.179565
     6   Atom       -0.061900     -0.126262     -0.154571
     7   Atom        0.141180      0.009290     -0.024940
 --------------------------------------------------------


 ---------------------------------------------------------------------------------
              Nuclear Quadrupole Coupling Constant in Principal Axis System
[...]
     21 -0.607007D-02  0.127736D+00 -0.162769D+00  0.455015D-02  0.616234D-03
                6             7             8             9            10 
      6  0.304099D+00
      7 -0.705655D-03  0.987688D-01
      8  0.108421D+00  0.294815D-02  0.569631D+00
      9 -0.109672D+00 -0.112251D-01 -0.161291D+00  0.766776D-01
     10  0.885402D-01  0.117124D-01 -0.544330D-01  0.186293D-01  0.412379D+00
     11  0.620446D-01 -0.619942D-01 -0.699763D-01  0.381174D-01  0.222645D+00
     12 -0.109336D+00  0.208679D-01  0.369630D-01  0.129666D-01 -0.124179D+00
     13 -0.433244D-02  0.427250D-02  0.257816D-02  0.995222D-03 -0.939615D-02
     14  0.518042D-02  0.738666D-03  0.194564D-02 -0.995262D-03  0.337840D-02
     15 -0.105637D-02 -0.428244D-03  0.130007D-02 -0.386634D-03  0.150367D-02
     16  0.292186D-01 -0.852686D-03 -0.258095D-03 -0.394944D-02 -0.246296D-02
     17 -0.147692D-01  0.207155D-02 -0.344626D-03  0.368189D-02  0.554775D-03
     18 -0.748048D-03  0.659887D-03 -0.610246D-03  0.737064D-03  0.180982D-02
     19 -0.204824D-01 -0.498578D-02  0.698839D-02  0.131287D-02  0.117768D-02
     20  0.116493D-01  0.681119D-02 -0.315959D-02 -0.748290D-03 -0.928604D-03
     21 -0.109256D-02 -0.951407D-03 -0.781369D-03  0.147397D-02 -0.145289D-02
               11            12            13            14            15 
     11  0.256268D+00
     12 -0.102120D+00  0.764295D-01
     13  0.442965D-02  0.251437D-02  0.200594D+00
     14  0.159357D-02 -0.206679D-02  0.138222D+00  0.167556D+00
     15 -0.328953D-03  0.113138D-02  0.333181D-01  0.286276D-01  0.522060D-01
     16 -0.122143D-02 -0.451311D-02  0.286605D-02 -0.894333D-02 -0.228664D-01
     17  0.852853D-03  0.145526D-02  0.328620D-02 -0.849721D-02 -0.194608D-01
     18  0.578572D-04  0.115487D-02 -0.365667D-04 -0.169628D-02 -0.457881D-02
     19 -0.100606D-02  0.181299D-02  0.937913D-03 -0.153320D-01  0.171033D-01
     20  0.327676D-02 -0.251509D-02  0.161978D-02 -0.137411D-01  0.132298D-01
     21 -0.237077D-02  0.137543D-02  0.126302D-02 -0.496096D-02  0.485340D-02
               16            17            18            19            20 
     16  0.464528D-01
     17 -0.127872D-01  0.880265D-01
     18 -0.288676D-01  0.102799D+00  0.276245D+00
     19 -0.899670D-03 -0.271914D-02  0.207050D-02  0.453413D-01
     20 -0.166434D-03  0.107266D-01 -0.921112D-02 -0.276984D-02  0.198813D+00
     21 -0.845667D-03  0.219559D-01 -0.200380D-01  0.350688D-02 -0.142195D+00
               21 
     21  0.176197D+00
 FormGI is forming the generalized inverse of G from B-inverse, IUseBI=4.
 Force constants in internal coordinates: 
                1             2             3             4             5 
      1  0.209996D+00
      2  0.226561D-02  0.330135D+00
      3  0.347916D-02  0.319071D-02  0.325032D+00
      4  0.226626D-02  0.291367D-02  0.319081D-02  0.330133D+00
      5  0.458430D-01  0.327069D-02  0.137383D-02  0.142339D-02  0.617784D+00
      6  0.458431D-01  0.142355D-02  0.137442D-02  0.327003D-02  0.977287D-01
      7  0.112697D-01 -0.246634D-02 -0.589171D-02 -0.546807D-02 -0.259427D-02
      8  0.925400D-02 -0.616099D-02 -0.671605D-03 -0.616124D-02  0.479952D-04
      9  0.112695D-01 -0.546829D-02 -0.589216D-02 -0.246558D-02  0.100349D-01
     10 -0.113213D-01  0.761129D-02  0.714320D-02 -0.539834D-03 -0.121222D-03
     11 -0.101954D-01  0.723635D-02 -0.100326D-02  0.723619D-02 -0.362661D-02
     12 -0.113223D-01 -0.539515D-03  0.714332D-02  0.761126D-02 -0.403432D-02
     13  0.215418D-01 -0.101241D-01  0.872855D-03  0.123367D-01  0.239629D-01
     14  0.215400D-01  0.123402D-01  0.865978D-03 -0.101208D-01 -0.484026D-01
     15 -0.431113D-01 -0.216912D-02 -0.182495D-02 -0.216883D-02  0.244369D-01
     16  0.540661D-03  0.103393D-02 -0.667513D-02  0.457022D-02  0.670010D-03
     17  0.241101D-02 -0.912913D-03 -0.302204D-02  0.262165D-02  0.430587D-03
     18 -0.934496D-03  0.507437D-02 -0.182643D-02 -0.312730D-02 -0.977215D-03
     19  0.935852D-03  0.312753D-02  0.182666D-02 -0.507587D-02 -0.121664D-02
     20 -0.241173D-02 -0.262210D-02  0.302225D-02  0.913652D-03  0.312094D-04
     21 -0.541378D-03 -0.456894D-02  0.667534D-02 -0.103492D-02 -0.208213D-03
                6             7             8             9            10 
      6  0.617783D+00
      7  0.100387D-01  0.911945D-01
      8  0.437911D-04 -0.138710D-01  0.873815D-01
      9 -0.259495D-02 -0.214704D-01 -0.138666D-01  0.911930D-01
     10 -0.403418D-02 -0.325101D-01 -0.337629D-01  0.840632D-02  0.499960D-01
     11 -0.362762D-02 -0.343053D-01  0.815688D-02 -0.343061D-01  0.489402D-02
     12 -0.119589D-03  0.840659D-02 -0.337620D-01 -0.325100D-01  0.471156D-02
     13 -0.484015D-01 -0.153698D-01 -0.437227D-03  0.196261D-01  0.512348D-02
     14  0.239623D-01  0.196317D-01 -0.448430D-03 -0.153662D-01 -0.752553D-02
     15  0.244365D-01 -0.414269D-02  0.612919D-03 -0.414064D-02  0.245423D-02
     16  0.208455D-03  0.215437D-02 -0.103809D-01  0.837702D-02 -0.999393D-02
     17 -0.310074D-04 -0.280379D-02  0.109526D-02  0.341390D-02 -0.122275D-01
     18  0.121702D-02  0.754140D-02 -0.573858D-02 -0.257997D-02  0.110887D-01
     19  0.977555D-03  0.258324D-02  0.573756D-02 -0.754309D-02  0.885515D-02
     20 -0.431097D-03 -0.341649D-02 -0.109595D-02  0.280671D-02  0.899165D-03
     21 -0.670559D-03 -0.837466D-02  0.103802D-01 -0.215641D-02 -0.133441D-02
               11            12            13            14            15 
     11  0.522749D-01
     12  0.489395D-02  0.499948D-01
     13 -0.160145D-02 -0.752789D-02  0.165980D+00
     14 -0.160508D-02  0.512596D-02 -0.668027D-01  0.165978D+00
     15  0.312848D-02  0.245409D-02 -0.991403D-01 -0.991383D-01  0.198235D+00
     16  0.755774D-02  0.133350D-02  0.218752D-03  0.879248D-03 -0.407841D-03
     17  0.107988D-01 -0.898471D-03  0.959188D-04  0.756454D-03 -0.147292D-02
     18 -0.162044D-02 -0.885675D-02 -0.284260D-02  0.296575D-02  0.532175D-03
     19  0.162065D-02 -0.110887D-01 -0.296543D-02  0.284295D-02 -0.532906D-03
     20 -0.107983D-01  0.122270D-01 -0.755950D-03 -0.968183D-04  0.147330D-02
     21 -0.755717D-02  0.999503D-02 -0.878783D-03 -0.219613D-03  0.408218D-03
               16            17            18            19            20 
     16  0.263737D-01
     17 -0.268315D-02  0.234699D-01
     18  0.899225D-02 -0.186116D-01  0.234444D-01
     19 -0.200646D-01  0.754143D-02 -0.415950D-02  0.234465D-01
     20  0.913147D-02 -0.170208D-01  0.753934D-02 -0.186129D-01  0.234681D-01
     21 -0.199254D-01  0.913226D-02 -0.200645D-01  0.899309D-02 -0.268420D-02
               21 
     21  0.263734D-01
 Leave Link  716 at Tue Jan  2 17:26:56 2018, MaxMem=  3211264000 cpu:               0.0 elap:               0.1
 (Enter /hpc2n/eb/software/Core/gaussian/16.A.03-AVX2/g16/l103.exe)

 GradGradGradGradGradGradGradGradGradGradGradGradGradGradGradGradGradGrad
 Berny optimization.
 Red2BG is reusing G-inverse.
 Internal  Forces:  Max     0.000000064 RMS     0.000000025
 Search for a local minimum.
 Step number   1 out of a maximum of    2
 All quantities printed in internal units (Hartrees-Bohrs-Radians)
 Second derivative matrix not updated -- analytic derivatives used.
 ITU=  0
     Eigenvalues ---    0.00001   0.05262   0.05732   0.07734   0.10843
     Eigenvalues ---    0.11925   0.12966   0.17983   0.22286   0.32236
     Eigenvalues ---    0.32425   0.33225   0.33803   0.53848   0.72695
 Angle between quadratic step and forces=  85.37 degrees.
 Linear search not attempted -- first point.
 Iteration  1 RMS(Cart)=  0.00013132 RMS(Int)=  0.00000001
 Iteration  2 RMS(Cart)=  0.00000001 RMS(Int)=  0.00000000
 ITry= 1 IFail=0 DXMaxC= 3.00D-04 DCOld= 1.00D+10 DXMaxT= 3.00D-01 DXLimC= 3.00D+00 Rises=F
 Variable       Old X    -DE/DX   Delta X   Delta X   Delta X     New X
                                 (Linear)    (Quad)   (Total)
    R1        2.94784   0.00000   0.00000   0.00000   0.00000   2.94784
    R2        2.06267  -0.00000   0.00000   0.00000   0.00000   2.06267
    R3        2.06841  -0.00000   0.00000  -0.00000  -0.00000   2.06841
    R4        2.06267  -0.00000   0.00000  -0.00000  -0.00000   2.06267
    R5        2.37130   0.00000   0.00000   0.00000   0.00000   2.37130
    R6        2.37131  -0.00000   0.00000  -0.00000  -0.00000   2.37130
    A1        1.93869  -0.00000   0.00000  -0.00001  -0.00001   1.93868
    A2        1.89421   0.00000   0.00000   0.00000   0.00000   1.89421
    A3        1.93866   0.00000   0.00000   0.00001   0.00001   1.93868
    A4        1.88208   0.00000   0.00000  -0.00001  -0.00001   1.88207
    A5        1.92605  -0.00000   0.00000  -0.00000  -0.00000   1.92605
    A6        1.88206  -0.00000   0.00000   0.00001   0.00001   1.88207
    A7        2.01788   0.00000   0.00000  -0.00001  -0.00001   2.01787
    A8        2.01786  -0.00000   0.00000   0.00001   0.00001   2.01787
    A9        2.24718  -0.00000   0.00000  -0.00000  -0.00000   2.24718
    D1       -0.50651  -0.00000   0.00000  -0.00026  -0.00026  -0.50677
    D2        2.65786  -0.00000   0.00000  -0.00026  -0.00026   2.65760
    D3        1.55969   0.00000   0.00000  -0.00028  -0.00028   1.55941
    D4       -1.55913  -0.00000   0.00000  -0.00028  -0.00028  -1.55941
    D5       -2.65734   0.00000   0.00000  -0.00026  -0.00026  -2.65760
    D6        0.50702  -0.00000   0.00000  -0.00026  -0.00026   0.50676
         Item               Value     Threshold  Converged?
 Maximum Force            0.000000     0.000015     YES
 RMS     Force            0.000000     0.000010     YES
 Maximum Displacement     0.000300     0.000060     NO 
 RMS     Displacement     0.000131     0.000040     NO 
 Predicted change in Energy=-3.050878D-12
 Optimization completed on the basis of negligible forces.
    -- Stationary point found.
                           ----------------------------
                           !   Optimized Parameters   !
                           ! (Angstroms and Degrees)  !
 --------------------------                            --------------------------
 ! Name  Definition              Value          Derivative Info.                !
 --------------------------------------------------------------------------------
 ! R1    R(1,2)                  1.5599         -DE/DX =    0.0                 !
 ! R2    R(1,5)                  1.0915         -DE/DX =    0.0                 !
 ! R3    R(1,6)                  1.0946         -DE/DX =    0.0                 !
 ! R4    R(1,7)                  1.0915         -DE/DX =    0.0                 !
 ! R5    R(2,3)                  1.2548         -DE/DX =    0.0                 !
 ! R6    R(2,4)                  1.2548         -DE/DX =    0.0                 !
 ! A1    A(2,1,5)              111.0786         -DE/DX =    0.0                 !
 ! A2    A(2,1,6)              108.5302         -DE/DX =    0.0                 !
 ! A3    A(2,1,7)              111.0773         -DE/DX =    0.0                 !
 ! A4    A(5,1,6)              107.8353         -DE/DX =    0.0                 !
 ! A5    A(5,1,7)              110.3546         -DE/DX =    0.0                 !
 ! A6    A(6,1,7)              107.8339         -DE/DX =    0.0                 !
 ! A7    A(1,2,3)              115.616          -DE/DX =    0.0                 !
 ! A8    A(1,2,4)              115.6149         -DE/DX =    0.0                 !
 ! A9    A(3,2,4)              128.7537         -DE/DX =    0.0                 !
 ! D1    D(5,1,2,3)            -29.0208         -DE/DX =    0.0                 !
 ! D2    D(5,1,2,4)            152.2839         -DE/DX =    0.0                 !
 ! D3    D(6,1,2,3)             89.3637         -DE/DX =    0.0                 !
 ! D4    D(6,1,2,4)            -89.3316         -DE/DX =    0.0                 !
 ! D5    D(7,1,2,3)           -152.2543         -DE/DX =    0.0                 !
 ! D6    D(7,1,2,4)             29.0503         -DE/DX =    0.0                 !
 --------------------------------------------------------------------------------
 GradGradGradGradGradGradGradGradGradGradGradGradGradGradGradGradGradGrad

 Leave Link  103 at Tue Jan  2 17:26:57 2018, MaxMem=  3211264000 cpu:               0.1 elap:               0.0
 (Enter /hpc2n/eb/software/Core/gaussian/16.A.03-AVX2/g16/l9999.exe)

 ----------------------------------------------------------------------

 Electric dipole moment (input orientation):
 (Debye = 10**-18 statcoulomb cm , SI units = C m)
                  (au)            (Debye)         (10**-30 SI)
   Tot        0.142523D+01      0.362256D+01      0.120836D+02
   x         -0.126098D+01     -0.320509D+01     -0.106910D+02
   y          0.663925D+00      0.168753D+01      0.562899D+01
   z          0.201351D-01      0.511783D-01      0.170712D+00

 Dipole polarizability, Alpha (input orientation).
 (esu units = cm**3 , SI units = C**2 m**2 J**-1)
 Alpha(0;0):
               (au)            (10**-24 esu)      (10**-40 SI)
   iso        0.485894D+02      0.720021D+01      0.801132D+01
   aniso      0.202034D+02      0.299383D+01      0.333109D+01
   xx         0.563145D+02      0.834495D+01      0.928501D+01
   yx        -0.340097D+01     -0.503972D+00     -0.560744D+00
   yy         0.521740D+02      0.773139D+01      0.860233D+01
   zx        -0.292545D+01     -0.433507D+00     -0.482342D+00
   zy        -0.396453D+01     -0.587483D+00     -0.653663D+00
   zz         0.372798D+02      0.552430D+01      0.614662D+01

 ----------------------------------------------------------------------

 Dipole orientation:
     6          0.00551188         -0.01198019          2.55361287
     6         -0.01259812         -0.00901705         -0.39417121
     8         -0.34196967         -2.12167211         -1.41949371
     8          0.35222079          2.09781529         -1.41947723
     1         -1.16718329         -1.53533147          3.30113595
     1          1.94476444         -0.33046566          3.19874226
     1         -0.61828393          1.80647629          3.30108096

 Electric dipole moment (dipole orientation):
 (Debye = 10**-18 statcoulomb cm , SI units = C m)
                  (au)            (Debye)         (10**-30 SI)
   Tot        0.142523D+01      0.362256D+01      0.120836D+02
   x          0.000000D+00      0.000000D+00      0.000000D+00
   y          0.000000D+00      0.000000D+00      0.000000D+00
   z          0.142523D+01      0.362256D+01      0.120836D+02

 Dipole polarizability, Alpha (dipole orientation).
 (esu units = cm**3 , SI units = C**2 m**2 J**-1)
 Alpha(0;0):
               (au)            (10**-24 esu)      (10**-40 SI)
   iso        0.485894D+02      0.720021D+01      0.801132D+01
   aniso      0.202034D+02      0.299383D+01      0.333109D+01
   xx         0.360679D+02      0.534470D+01      0.594679D+01
   yx         0.260345D+01      0.385791D+00      0.429251D+00
   yy         0.514639D+02      0.762616D+01      0.848525D+01
   zx         0.463534D+00      0.686886D-01      0.764264D-01
   zy        -0.757667D-01     -0.112275D-01     -0.124922D-01
   zz         0.582366D+02      0.862977D+01      0.960192D+01

 ----------------------------------------------------------------------

 Test job not archived.
 1\1\GINC-B-CN0110\Freq\RB3LYP\Gen\C2H3O2(1-)\SPOEL\02-Jan-2018\0\\#P G
 eom=AllCheck Guess=TCheck SCRF=Check Test GenChk RB3LYP/ChkBas Freq\\a
 cetate\\-1,1\C,-1.1974953993,0.6256963358,0.0246247577\C,0.181088319,-
 0.10362757,-0.0066223856\O,0.1670224601,-1.3059601418,0.3522957396\O,1
 .1582711592,0.5984037807,-0.3628394911\H,-2.0166556171,-0.0758621616,-
 0.1433116176\H,-1.3339469112,1.0693198384,1.0159028801\H,-1.2316690107
 ,1.4321729185,-0.7101138831\\Version=ES64L-G16RevA.03\State=1-A\HF=-22
 8.6219292\RMSD=1.208e-09\RMSF=3.023e-08\ZeroPoint=0.0477112\Thermal=0.
 0522016\Dipole=-1.2609784,0.6639251,0.0201351\DipoleDeriv=-0.3693911,0
 .309864,0.0374618,0.3181566,0.0259087,-0.0194573,0.0594776,-0.0309165,
 0.1989517,1.6863261,0.1336762,-0.3318791,0.1388055,1.9013337,-0.556574
 5,-0.3182469,-0.5636698,0.2404463,-0.7687821,0.1285826,0.0072401,-0.05
 613,-1.712345,0.3481721,0.0633707,0.3381598,-0.6187484,-1.4311988,-0.5
 17243,0.3096983,-0.3368136,-1.0474848,0.2136395,0.2422098,0.2295627,-0
 .621207,-0.1603909,-0.0667949,-0.0240007,-0.1693335,-0.0476011,-0.0296
 611,-0.0594224,-0.0159377,0.0409594,0.0247308,0.0047752,-0.0103259,0.0
 38812,-0.0064112,-0.0733479,0.0802566,-0.1204988,-0.16808,0.0187061,0.
 00714,0.0118054,0.0665031,-0.1134003,0.1172293,-0.0676453,0.1633003,-0
 .072322\Polar=56.3145054,-3.4009691,52.1739949,-2.92545,-3.9645342,37.
 2798459\Quadrupole=-1.3567559,-2.2762212,3.6329771,-0.6187313,1.133613
 6,2.0372113\PG=C01 [X(C2H3O2)]\NImag=0\\0.43132839,0.07532051,0.525252
 76,0.00368290,-0.02367340,0.51542241,-0.09736506,0.01872442,-0.0033922
 1,0.57167692,0.01911483,-0.07150712,-0.00696559,0.12055332,0.74340921,
 -0.00235911,-0.00750326,-0.08219421,-0.08987916,-0.16502329,0.30409944
 ,-0.00530834,0.03477217,-0.00821738,-0.10360690,0.01465245,-0.00070566
 ,0.09876883,0.01885866,-0.04220318,0.01599844,0.02331773,-0.45589267,0
 .10842135,0.00294815,0.56963074,-0.00285285,0.01108237,0.01820333,-0.0
 0291003,0.11015316,-0.10967191,-0.01122508,-0.16129128,0.07667756,-0.0
 5534768,-0.01620331,0.01514885,-0.35806256,-0.15501367,0.08854018,0.01
 171237,-0.05443299,0.01862931,0.41237930,0.00074666,0.00975603,0.00460
 030,-0.16360003,-0.20177078,0.06204464,-0.06199418,-0.06997632,0.03811
 740,0.22264540,0.25626790,0.01254241,0.00808054,0.01627855,0.09095440,
 0.06020351,-0.10933634,0.02086788,0.03696304,0.01296662,-0.12417894,-0
 .10212047,0.07642950,-0.18415472,-0.12409911,-0.03372165,-0.01511998,-
 0.02603678,-0.00433244,0.00427250,0.00257816,0.00099522,-0.00939615,0.
 00442965,0.00251437,0.20059437,-0.12623820,-0.15497422,-0.02408873,0.0
 0817438,0.00611738,0.00518042,0.00073867,0.00194564,-0.00099526,0.0033
 7840,0.00159357,-0.00206679,0.13822209,0.16755593,-0.03098542,-0.02307
 206,-0.05216895,0.00235508,-0.00029568,-0.00105637,-0.00042824,0.00130
 007,-0.00038663,0.00150367,-0.00032895,0.00113138,0.03331805,0.0286276
 0,0.05220598,-0.04330260,0.01245794,0.03182357,-0.00180098,0.01091856,
 0.02921862,-0.00085269,-0.00025809,-0.00394944,-0.00246296,-0.00122143
 ,-0.00451311,0.00286605,-0.00894333,-0.02286641,0.04645285,0.01028618,
 -0.08365222,-0.09566163,-0.00069237,-0.00711191,-0.01476919,0.00207155
 ,-0.00034463,0.00368189,0.00055477,0.00085285,0.00145526,0.00328620,-0
 .00849721,-0.01946080,-0.01278721,0.08802650,0.02604215,-0.09265042,-0
 .25277197,-0.00167822,0.00131164,-0.00074805,0.00065989,-0.00061025,0.
 00073706,0.00180982,0.00005786,0.00115487,-0.00003657,-0.00169628,-0.0
 0457881,-0.02886756,0.10279857,0.27624490,-0.04584999,-0.00097261,-0.0
 0532407,0.00427855,0.01581128,-0.02048242,-0.00498578,0.00698839,0.001
 31287,0.00117768,-0.00100606,0.00181299,0.00093791,-0.01533202,0.01710
 327,-0.00089967,-0.00271914,0.00207050,0.04534131,0.00191136,-0.182672
 04,0.12979062,-0.00647746,-0.01324412,0.01164933,0.00681119,-0.0031595
 9,-0.00074829,-0.00092860,0.00327676,-0.00251509,0.00161978,-0.0137410
 8,0.01322983,-0.00016643,0.01072662,-0.00921112,-0.00276984,0.19881346
 ,-0.00607007,0.12773623,-0.16276917,0.00455015,0.00061623,-0.00109256,
 -0.00095141,-0.00078137,0.00147397,-0.00145289,-0.00237077,0.00137543,
 0.00126302,-0.00496096,0.00485340,-0.00084567,0.02195590,-0.02003802,0
 .00350688,-0.14219527,0.17619695\\0.00000005,-0.00000001,-0.00000004,-
 0.00000005,-0.00000002,-0.00000003,-0.00000001,0.00000001,0.00000002,0
 .00000005,0.00000005,0.00000001,-0.00000004,0.,0.00000003,-0.00000002,
 -0.00000002,0.00000002,0.00000001,0.,-0.00000002\\\@


 MICRO CREDO - NEVER TRUST A COMPUTER BIGGER
               BIGGER THAN YOU CAN LIFT.
 Job cpu time:       0 days  0 hours 25 minutes 52.2 seconds.
 Elapsed time:       0 days  0 hours 25 minutes 52.1 seconds.
 File lengths (MBytes):  RWF=     51 Int=      0 D2E=      0 Chk=      6 Scr=      1
 Normal termination of Gaussian 16 at Tue Jan  2 17:26:57 2018.
